14
Iteration: 0
Ca      0.0   0.0   0.0 
O     -2.4420   -4.7874    2.4172 
C     -2.3238   -4.1916    1.3134 
O     -1.0916   -4.2015    0.6652 
C     -3.5154   -3.5219    0.6832 
N     -4.2378   -2.7309    1.6823 
C     -4.4317   -4.5654    0.0336 
H     -0.9654   -3.7549   -0.2352 
H     -3.1556   -2.8330   -0.1127 
H     -4.7184   -3.3710    2.3567 
H     -4.9830   -2.1808    1.1959 
H     -4.8123   -5.2824    0.7926 
H     -5.2963   -4.0632   -0.4499 
H     -3.8750   -5.1289   -0.7457 
14
Iteration: 1
Ca      0.00000000        0.00000000        0.00000000 
O     -2.41926894       -4.74748437        2.40728311 
C     -2.33583820       -4.19710339        1.31962994 
O     -1.10829445       -4.17987479        0.68709096 
C     -3.52698915       -3.52165448        0.66581348 
N     -4.20972226       -2.70379918        1.67613400 
C     -4.41931676       -4.58656269        0.00801652 
H     -1.07936049       -3.78958584       -0.22701636 
H     -3.16849382       -2.82995606       -0.12326196 
H     -4.65149458       -3.32561605        2.37381636 
H     -4.97529438       -2.18745560        1.21766683 
H     -4.79234449       -5.28872993        0.77235740 
H     -5.28258654       -4.09081491       -0.46571688 
H     -3.88387309       -5.16411171       -0.76513594 
14
Iteration: 2
Ca      0.00000000        0.00000000        0.00000000 
O     -2.40323703       -4.72088636        2.39785303 
C     -2.33008438       -4.16385311        1.34452560 
O     -1.11922756       -4.15387731        0.69111308 
C     -3.52681750       -3.51693440        0.63866616 
N     -4.17906654       -2.67058274        1.65036428 
C     -4.41186732       -4.60211737       -0.00702534 
H     -1.21380581       -3.82818282       -0.24100584 
H     -3.16920880       -2.83146690       -0.15175544 
H     -4.55568398       -3.26723966        2.40169914 
H     -4.98235657       -2.20025565        1.22363756 
H     -4.77462644       -5.29660546        0.76107168 
H     -5.27897234       -4.12925478       -0.48498769 
H     -3.88132342       -5.18821778       -0.76950148 
14
Iteration: 3
Ca      0.00000000        0.00000000        0.00000000 
O     -2.37897049       -4.66204625        2.42493766 
C     -2.33469926       -4.18259069        1.32702162 
O     -1.11826171       -4.12255420        0.67803264 
C     -3.52626265       -3.51823918        0.61517460 
N     -4.15462446       -2.64580329        1.62394200 
C     -4.41619034       -4.61052420       -0.01158175 
H     -1.28186137       -3.83358503       -0.25557288 
H     -3.16407986       -2.84674340       -0.18460696 
H     -4.47812017       -3.22272842        2.42031982 
H     -4.99220379       -2.21003243        1.22189783 
H     -4.77096234       -5.30095441        0.76253829 
H     -5.28558028       -4.14958156       -0.49498188 
H     -3.88281543       -5.20081167       -0.76828443 
14
Iteration: 4
Ca      0.00000000        0.00000000        0.00000000 
O     -2.36109013       -4.61928700        2.43757009 
C     -2.32475072       -4.15664986        1.32382870 
O     -1.12571103       -4.12414032        0.63245608 
C     -3.52591149       -3.51648696        0.60064348 
N     -4.14081067       -2.61980472        1.59671611 
C     -4.41958686       -4.61750668       -0.00493466 
H     -1.31553830       -3.83591618       -0.27729984 
H     -3.16179012       -2.86600319       -0.21722560 
H     -4.41502739       -3.18056611        2.42621270 
H     -5.00959478       -2.22291239        1.21049837 
H     -4.76871901       -5.30317659        0.77763554 
H     -5.29341601       -4.16943410       -0.49609366 
H     -3.88132493       -5.21191020       -0.75785041 
14
Iteration: 5
Ca      0.00000000        0.00000000        0.00000000 
O     -2.32789014       -4.55603636        2.44723624 
C     -2.30653486       -4.11591059        1.31841825 
O     -1.12925908       -4.10511338        0.57695402 
C     -3.52673044       -3.51792606        0.58811622 
N     -4.13221808       -2.59190514        1.56135905 
C     -4.42415965       -4.63198670        0.01314664 
H     -1.38422145       -3.87854844       -0.34752198 
H     -3.16377110       -2.89766680       -0.25761567 
H     -4.35806766       -3.13021724        2.41383520 
H     -5.02612565       -2.23756580        1.19122460 
H     -4.76957360       -5.30853035        0.80777358 
H     -5.30242326       -4.19782699       -0.48786951 
H     -3.88180167       -5.23384054       -0.73490572 
14
Iteration: 6
Ca      0.00000000        0.00000000        0.00000000 
O     -2.30050279       -4.50275455        2.42984383 
C     -2.29311338       -4.08657953        1.29294439 
O     -1.12976106       -4.09776813        0.52470331 
C     -3.52816369       -3.51436966        0.57458455 
N     -4.12915603       -2.56957410        1.52854871 
C     -4.42843072       -4.64470851        0.03743689 
H     -1.40072141       -3.90517536       -0.39397713 
H     -3.17297992       -2.92019634       -0.29596868 
H     -4.32213796       -3.08442575        2.39516711 
H     -5.03404350       -2.24315999        1.17282148 
H     -4.76932019       -5.30790120        0.84765319 
H     -5.31026278       -4.22031432       -0.46804214 
H     -3.88838676       -5.25869474       -0.70511030 
14
Iteration: 7
Ca      0.00000000        0.00000000        0.00000000 
O     -2.26535505       -4.43017598        2.39856176 
C     -2.28384795       -4.05483276        1.25169815 
O     -1.13101326       -4.07758220        0.47186931 
C     -3.53632356       -3.51251964        0.54999818 
N     -4.13089523       -2.54615298        1.48066727 
C     -4.43718225       -4.66704587        0.06573985 
H     -1.41918657       -3.95437747       -0.45412096 
H     -3.20264624       -2.94603580       -0.34787901 
H     -4.26398773       -3.02241866        2.39107490 
H     -5.06203562       -2.26703612        1.14773087 
H     -4.76947080       -5.30591505        0.90050506 
H     -5.32367739       -4.25485837       -0.44067503 
H     -3.90704517       -5.30249963       -0.66652221 
14
Iteration: 8
Ca      0.00000000        0.00000000        0.00000000 
O     -2.21677493       -4.34336873        2.36054643 
C     -2.27673933       -4.02668816        1.19757413 
O     -1.13071824       -4.05507367        0.42429688 
C     -3.54658418       -3.51093040        0.52333910 
N     -4.13661075       -2.53984921        1.44224696 
C     -4.44628599       -4.68865546        0.09506667 
H     -1.40597556       -4.01429715       -0.51676163 
H     -3.25392641       -2.95974523       -0.39243882 
H     -4.24712242       -2.97768592        2.35884032 
H     -5.06944506       -2.28080609        1.13151594 
H     -4.76401767       -5.29380939        0.96017704 
H     -5.34037515       -4.28944313       -0.40349975 
H     -3.93612928       -5.35284266       -0.62330699 
14
Iteration: 9
Ca      0.00000000        0.00000000        0.00000000 
O     -2.17361153       -4.25327802        2.34881285 
C     -2.26751816       -3.99076901        1.16614938 
O     -1.14107844       -4.05076084        0.36183899 
C     -3.55579741       -3.51101293        0.49536490 
N     -4.13388721       -2.51659004        1.39908100 
C     -4.45556927       -4.71088601        0.11689057 
H     -1.42797781       -4.05541053       -0.57569013 
H     -3.28989448       -2.98346518       -0.44451108 
H     -4.18871647       -2.92049434        2.34942171 
H     -5.09890097       -2.30729031        1.11149920 
H     -4.75636342       -5.28985417        1.00679759 
H     -5.36018422       -4.33269026       -0.38093433 
H     -3.95590754       -5.39595931       -0.58882662 
14
Iteration: 10
Ca      0.00000000        0.00000000        0.00000000 
O     -2.13650195       -4.18088727        2.31201403 
C     -2.25610587       -3.94850694        1.13350027 
O     -1.15146625       -4.04832789        0.29948651 
C     -3.56521693       -3.50956439        0.46618492 
N     -4.13572401       -2.49476290        1.35777880 
C     -4.46190289       -4.73340696        0.14307873 
H     -1.44010308       -4.08318333       -0.62799224 
H     -3.33229409       -3.00314289       -0.49330034 
H     -4.15063338       -2.86759328        2.32495764 
H     -5.11832650       -2.31970026        1.09202570 
H     -4.73675776       -5.28067193        1.06067885 
H     -5.38357992       -4.38494109       -0.34909670 
H     -3.97444484       -5.44188749       -0.54560048 
14
Iteration: 11
Ca      0.00000000        0.00000000        0.00000000 
O     -2.09154768       -4.09650082        2.28467578 
C     -2.24360608       -3.91406569        1.09700281 
O     -1.15700140       -4.03113523        0.23923046 
C     -3.57532993       -3.51438754        0.44118649 
N     -4.13901801       -2.47865468        1.31917995 
C     -4.47011700       -4.75603609        0.17091337 
H     -1.46982643       -4.12042210       -0.69082674 
H     -3.36472377       -3.03209866       -0.53667051 
H     -4.12902235       -2.82377410        2.28945837 
H     -5.12033296       -2.31685245        1.07444437 
H     -4.72196099       -5.27669075        1.11048279 
H     -5.40575000       -4.43297763       -0.31532946 
H     -3.98877940       -5.48190591       -0.50300711 
14
Iteration: 12
Ca      0.00000000        0.00000000        0.00000000 
O     -2.04320695       -4.00388005        2.24410921 
C     -2.23628818       -3.89572961        1.04797472 
O     -1.16852721       -4.01831213        0.17597266 
C     -3.59018450       -3.52956232        0.41385417 
N     -4.14820516       -2.47117692        1.28225900 
C     -4.47756963       -4.77661931        0.20100515 
H     -1.50108823       -4.10401324       -0.72837208 
H     -3.39766830       -3.07084685       -0.56840178 
H     -4.13079358       -2.79697329        2.23299210 
H     -5.11421820       -2.30056726        1.05865893 
H     -4.69354264       -5.26560979        1.15618651 
H     -5.43167073       -4.48759539       -0.26777470 
H     -3.99587437       -5.51520929       -0.45129925 
14
Iteration: 13
Ca      0.00000000        0.00000000        0.00000000 
O     -2.01574953       -3.93714470        2.19922034 
C     -2.22950819       -3.86260754        1.00589740 
O     -1.17438919       -3.99333325        0.12366243 
C     -3.59975508       -3.52885499        0.38642039 
N     -4.15019269       -2.44942933        1.23420909 
C     -4.48196046       -4.79713366        0.23214595 
H     -1.53194489       -4.13159803       -0.78009890 
H     -3.42993718       -3.09874603       -0.61858616 
H     -4.07609135       -2.74176576        2.21407392 
H     -5.14708432       -2.32626251        1.03663478 
H     -4.68166545       -5.25565534        1.21295059 
H     -5.44354490       -4.52899863       -0.23383398 
H     -4.00721203       -5.55807103       -0.40550743 
14
Iteration: 14
Ca      0.00000000        0.00000000        0.00000000 
O     -1.99123774       -3.87061438        2.14716965 
C     -2.22277526       -3.82641993        0.96503036 
O     -1.18756597       -3.98130423        0.06055400 
C     -3.61038308       -3.53071941        0.36458435 
N     -4.16060293       -2.43636695        1.18987585 
C     -4.47776520       -4.81427883        0.26867277 
H     -1.56398695       -4.14411875       -0.83434424 
H     -3.46729641       -3.12917704       -0.65990148 
H     -4.05308178       -2.70120498        2.18018278 
H     -5.16548955       -2.33576215        1.01079887 
H     -4.65843889       -5.24093299        1.26813742 
H     -5.44765129       -4.56917572       -0.18896924 
H     -4.00704048       -5.59278496       -0.35303387 
14
Iteration: 15
Ca      0.00000000        0.00000000        0.00000000 
O     -1.95962053       -3.78186807        2.10363045 
C     -2.22011780       -3.79304877        0.92059944 
O     -1.20654334       -3.97714763       -0.00631164 
C     -3.62399593       -3.53631173        0.34328199 
N     -4.17114770       -2.43043489        1.14763324 
C     -4.47235394       -4.83036478        0.30384975 
H     -1.59488168       -4.14992756       -0.88649242 
H     -3.50949983       -3.16205457       -0.69669843 
H     -4.03713055       -2.66720853        2.14539320 
H     -5.18282326       -2.34866020        0.98655851 
H     -4.63363915       -5.22614236        1.31826144 
H     -5.45066348       -4.60772414       -0.14347925 
H     -4.00531885       -5.62214368       -0.30349005 
14
Iteration: 16
Ca      0.00000000        0.00000000        0.00000000 
O     -1.95581902       -3.69048660        2.03243833 
C     -2.23842167       -3.76699978        0.86764418 
O     -1.24542722       -3.97623995       -0.06191667 
C     -3.64536543       -3.55014172        0.33625345 
N     -4.19285608       -2.45532367        1.11579630 
C     -4.43825415       -4.82880339        0.34693458 
H     -1.64701494       -4.10996200       -0.92047631 
H     -3.55738086       -3.20458286       -0.69865568 
H     -4.07691548       -2.67721999        2.09314757 
H     -5.19625279       -2.36156567        0.95770194 
H     -4.58185867       -5.19699042        1.35122072 
H     -5.42104886       -4.62822203       -0.07919525 
H     -3.96314420       -5.61118944       -0.25193476 
14
Iteration: 17
Ca      0.00000000        0.00000000        0.00000000 
O     -1.95367659       -3.75360748        2.08194573 
C     -2.22437854       -3.78636843        0.90312687 
O     -1.21513733       -3.97421752       -0.02015655 
C     -3.62986339       -3.54113002        0.33828618 
N     -4.17263515       -2.43458827        1.13813415 
C     -4.46606257       -4.83307186        0.31547607 
H     -1.61255363       -4.14354270       -0.89646807 
H     -3.52297841       -3.17653722       -0.70096670 
H     -4.04803692       -2.66391268        2.12995079 
H     -5.17790119       -2.34499170        0.97881319 
H     -4.61763292       -5.22053963        1.33214476 
H     -5.44991462       -4.62098332       -0.12689678 
H     -3.99895763       -5.62331126       -0.29101257 
14
Iteration: 18
Ca      0.00000000        0.00000000        0.00000000 
O     -1.94333963       -3.72748289        2.06617631 
C     -2.22359230       -3.77477666        0.88999961 
O     -1.22122512       -3.97389292       -0.03869490 
C     -3.63391954       -3.54161759        0.33380305 
N     -4.17690790       -2.43127778        1.12674371 
C     -4.46273586       -4.83783989        0.32723573 
H     -1.62417275       -4.14484718       -0.91169761 
H     -3.53731534       -3.18565988       -0.70920322 
H     -4.04855189       -2.65448824        2.11783462 
H     -5.18505577       -2.34762292        0.97014774 
H     -4.60681820       -5.22003015        1.34471088 
H     -5.45058644       -4.63385693       -0.11130075 
H     -3.99576546       -5.62883215       -0.27721199 
14
Iteration: 19
Ca      0.00000000        0.00000000        0.00000000 
O     -1.93126800       -3.70113127        2.04822045 
C     -2.22297685       -3.76262764        0.87647088 
O     -1.22835245       -3.97817588       -0.05642098 
C     -3.63786826       -3.54192565        0.33071501 
N     -4.18258958       -2.42709863        1.11573954 
C     -4.45828640       -4.84357665        0.33843316 
H     -1.63668158       -4.14599141       -0.92626028 
H     -3.55371977       -3.19506879       -0.71516257 
H     -4.05394693       -2.64239538        2.10965233 
H     -5.19041292       -2.34597094        0.95920008 
H     -4.59314045       -5.22302855        1.35681581 
H     -5.45011392       -4.64682900       -0.09517202 
H     -3.99103420       -5.63375101       -0.26674105 
14
Iteration: 20
Ca      0.00000000        0.00000000        0.00000000 
O     -1.91719161       -3.67045123        2.03122328 
C     -2.22180868       -3.75000688        0.86333685 
O     -1.23606686       -3.98646462       -0.07317061 
C     -3.64073432       -3.54071994        0.32826905 
N     -4.18782556       -2.42191629        1.10682811 
C     -4.45370849       -4.84916694        0.34810690 
H     -1.65185227       -4.15121473       -0.94154075 
H     -3.56954233       -3.20377587       -0.72076120 
H     -4.06228127       -2.63206616        2.10195079 
H     -5.19615241       -2.34347309        0.94796793 
H     -4.57772950       -5.22746039        1.36992730 
H     -5.44913622       -4.65863050       -0.07940884 
H     -3.98585022       -5.63839050       -0.25993375 
14
Iteration: 21
Ca      0.00000000        0.00000000        0.00000000 
O     -1.90295633       -3.63366532        2.01512497 
C     -2.22029992       -3.73733727        0.85051311 
O     -1.24489109       -3.99851287       -0.08878282 
C     -3.64326498       -3.53875468        0.32561526 
N     -4.19322349       -2.41750069        1.09937740 
C     -4.44901371       -4.85452817        0.35679897 
H     -1.66864787       -4.15895326       -0.95620325 
H     -3.58429144       -3.21200021       -0.72734877 
H     -4.07177952       -2.62302958        2.09760726 
H     -5.20031510       -2.33986169        0.93631886 
H     -4.56116964       -5.23447723        1.38038212 
H     -5.44940128       -4.67116332       -0.06241349 
H     -3.97981724       -5.64024521       -0.25569839 
14
Iteration: 22
Ca      0.00000000        0.00000000        0.00000000 
O     -1.89083629       -3.59648495        1.99697935 
C     -2.21869393       -3.72456314        0.83690597 
O     -1.25392528       -4.01086260       -0.10438919 
C     -3.64632712       -3.53575656        0.32209907 
N     -4.19880324       -2.41430889        1.09283267 
C     -4.44400667       -4.85882678        0.36510567 
H     -1.68305717       -4.16669037       -0.97054131 
H     -3.59777055       -3.21719666       -0.73412048 
H     -4.08115030       -2.61788697        2.09191124 
H     -5.20583098       -2.33820811        0.92520506 
H     -4.54406958       -5.23756442        1.39320188 
H     -5.44974557       -4.68381573       -0.04517500 
H     -3.97451971       -5.64349252       -0.25018033 
14
Iteration: 23
Ca      0.00000000        0.00000000        0.00000000 
O     -1.87777250       -3.55606748        1.97780065 
C     -2.21667522       -3.71206217        0.82331763 
O     -1.26345105       -4.02301461       -0.11928316 
C     -3.65050437       -3.53385548        0.31867546 
N     -4.20508597       -2.41234207        1.08687598 
C     -4.43869452       -4.86254913        0.37284279 
H     -1.69851338       -4.17695674       -0.98443057 
H     -3.61030368       -3.22135792       -0.73976889 
H     -4.09014346       -2.61412113        2.08727909 
H     -5.21135418       -2.33702538        0.91442602 
H     -4.52823099       -5.23960569        1.40234576 
H     -5.44903160       -4.69610026       -0.02757735 
H     -3.96869327       -5.64612232       -0.24361177 
14
Iteration: 24
Ca      0.00000000        0.00000000        0.00000000 
O     -1.86529369       -3.51319748        1.95476260 
C     -2.21453819       -3.69997448        0.80882849 
O     -1.27367789       -4.03713326       -0.13281843 
C     -3.65545747       -3.53124703        0.31434030 
N     -4.21177921       -2.41218952        1.08275583 
C     -4.43317919       -4.86488037        0.37950694 
H     -1.71135582       -4.19055234       -0.99644116 
H     -3.62084730       -3.22069548       -0.74595845 
H     -4.09986736       -2.61490423        2.08314460 
H     -5.21713154       -2.33600533        0.90498543 
H     -4.51143925       -5.23769116        1.41163909 
H     -5.44914725       -4.70977662       -0.01033266 
H     -3.96368302       -5.64896907       -0.23585108 
14
Iteration: 25
Ca      0.00000000        0.00000000        0.00000000 
O     -1.85093588       -3.47145278        1.93299956 
C     -2.21307697       -3.68759238        0.79528731 
O     -1.28373266       -4.04956920       -0.14860894 
C     -3.66087314       -3.53049954        0.31018276 
N     -4.21889845       -2.41240135        1.07705618 
C     -4.42777881       -4.86731373        0.38624058 
H     -1.72508671       -4.20697949       -1.00909470 
H     -3.63125277       -3.21957149       -0.75017362 
H     -4.10711910       -2.61390621        2.07727536 
H     -5.22367645       -2.33564385        0.89783078 
H     -4.49632513       -5.23346601        1.41979388 
H     -5.44805135       -4.72317367        0.00382556 
H     -3.95857018       -5.65284430       -0.22559354 
14
Iteration: 26
Ca      0.00000000        0.00000000        0.00000000 
O     -1.83412303       -3.42461204        1.90481629 
C     -2.21247702       -3.67550425        0.78101440 
O     -1.29493209       -4.06644362       -0.16051575 
C     -3.66639374       -3.52896339        0.30660692 
N     -4.22669417       -2.41361756        1.07488843 
C     -4.42164242       -4.86860671        0.39052553 
H     -1.74088077       -4.23304195       -1.01638648 
H     -3.63895428       -3.21223493       -0.75345622 
H     -4.11651434       -2.61633194        2.07473936 
H     -5.23166079       -2.33533373        0.89339320 
H     -4.48020541       -5.22720927        1.42449947 
H     -5.44487695       -4.73578955        0.01508989 
H     -3.95189550       -5.65533539       -0.21686707 
14
Iteration: 27
Ca      0.00000000        0.00000000        0.00000000 
O     -1.81843079       -3.38138011        1.87985411 
C     -2.21207096       -3.66195193        0.76656521 
O     -1.30469860       -4.08131252       -0.17464302 
C     -3.67015250       -3.52642895        0.30322698 
N     -4.23368336       -2.41301993        1.07081555 
C     -4.41621502       -4.87134369        0.39634753 
H     -1.75615393       -4.25594086       -1.02569451 
H     -3.64953934       -3.20945171       -0.75810555 
H     -4.12480168       -2.61440795        2.07082026 
H     -5.23882014       -2.33533151        0.88823317 
H     -4.46416972       -5.22418418        1.43322374 
H     -5.44351141       -4.74826660        0.02641194 
H     -3.94549762       -5.65845505       -0.20957604 
14
Iteration: 28
Ca      0.00000000        0.00000000        0.00000000 
O     -1.79739818       -3.33244490        1.84833016 
C     -2.21440278       -3.64305455        0.75269518 
O     -1.31296711       -4.09858984       -0.18535047 
C     -3.66973020       -3.52102154        0.30314969 
N     -4.24209953       -2.41316614        1.07210043 
C     -4.41127535       -4.87470362        0.39713550 
H     -1.77589681       -4.30120504       -1.02334212 
H     -3.65781583       -3.19891004       -0.75882631 
H     -4.13424005       -2.61254756        2.07187815 
H     -5.24765362       -2.33919371        0.89245842 
H     -4.44984958       -5.22122937        1.44019423 
H     -5.44108625       -4.75659028        0.02401872 
H     -3.93579660       -5.66036430       -0.21026203 
14
Iteration: 29
Ca      0.00000000        0.00000000        0.00000000 
O     -1.77863362       -3.27917414        1.82099714 
C     -2.21323076       -3.62788112        0.73756907 
O     -1.32280154       -4.11333449       -0.19691891 
C     -3.67308456       -3.51864931        0.30187454 
N     -4.24946707       -2.41320895        1.07201153 
C     -4.40609629       -4.87755431        0.39972891 
H     -1.79439865       -4.33523406       -1.02758940 
H     -3.66745096       -3.19627119       -0.76020316 
H     -4.14143393       -2.61067158        2.07312311 
H     -5.25573512       -2.34389691        0.89064710 
H     -4.43934221       -5.22012673        1.44290553 
H     -5.43618061       -4.76357985        0.03068784 
H     -3.92788373       -5.66241575       -0.20727150 
14
Iteration: 30
Ca      0.00000000        0.00000000        0.00000000 
O     -1.76261892       -3.22507495        1.79160123 
C     -2.20886305       -3.61088872        0.71997853 
O     -1.32761115       -4.10583429       -0.20861698 
C     -3.67635737       -3.51913440        0.30230133 
N     -4.25563617       -2.41320650        1.07295273 
C     -4.40430591       -4.88234631        0.40128854 
H     -1.81220492       -4.37520369       -1.02292621 
H     -3.67740494       -3.20350931       -0.76138003 
H     -4.13456743       -2.60139190        2.07682552 
H     -5.26462219       -2.36307452        0.89580859 
H     -4.44675124       -5.22220932        1.44004466 
H     -5.42901001       -4.76160132        0.03063333 
H     -3.92207520       -5.66607790       -0.20376314 
14
Iteration: 31
Ca      0.00000000        0.00000000        0.00000000 
O     -1.75049381       -3.17010511        1.76050579 
C     -2.20384824       -3.59211652        0.70540643 
O     -1.33846875       -4.12181829       -0.22168717 
C     -3.67860260       -3.51366943        0.30300207 
N     -4.26516907       -2.41400781        1.07651562 
C     -4.39643914       -4.88243491        0.40198198 
H     -1.82973203       -4.41660254       -1.02225638 
H     -3.68622696       -3.20019119       -0.75981574 
H     -4.14396850       -2.60189174        2.07963108 
H     -5.27197322       -2.37021637        0.89622962 
H     -4.43685936       -5.22346093        1.44064781 
H     -5.42399175       -4.76680225        0.03574084 
H     -3.91225291       -5.66418349       -0.20336005 
14
Iteration: 32
Ca      0.00000000        0.00000000        0.00000000 
O     -1.75285359       -3.12836870        1.71886065 
C     -2.18924633       -3.57042137        0.68666697 
O     -1.34393750       -4.10570118       -0.23747944 
C     -3.67716682       -3.50832795        0.30389332 
N     -4.27404126       -2.41788060        1.07815432 
C     -4.38930256       -4.87746867        0.40213618 
H     -1.84023011       -4.45083594       -0.99631972 
H     -3.70054898       -3.21271428       -0.75860893 
H     -4.13784955       -2.59744286        2.07692960 
H     -5.27806714       -2.39581189        0.90822956 
H     -4.44414618       -5.22894487        1.44412326 
H     -5.42187463       -4.76461917        0.03196231 
H     -3.90946823       -5.66204495       -0.20170103 
14
Iteration: 33
Ca      0.00000000        0.00000000        0.00000000 
O     -1.72591256       -3.06724952        1.69090090 
C     -2.19153678       -3.55373497        0.67493090 
O     -1.35339569       -4.12507216       -0.24097367 
C     -3.67925977       -3.50491694        0.30297791 
N     -4.28211878       -2.42110033        1.08111684 
C     -4.38470781       -4.87908545        0.40087230 
H     -1.86057302       -4.49558335       -0.99299299 
H     -3.70966933       -3.19974028       -0.75905112 
H     -4.14785901       -2.60293201        2.08009259 
H     -5.28880886       -2.39972280        0.91284929 
H     -4.43018119       -5.22729803        1.44309228 
H     -5.41762839       -4.77266645        0.03102337 
H     -3.90148645       -5.66092849       -0.20463056 
14
Iteration: 34
Ca      0.00000000        0.00000000        0.00000000 
O     -1.68988236       -2.95201471        1.61911805 
C     -2.18631097       -3.51651862        0.64531431 
O     -1.37461189       -4.15686151       -0.25599545 
C     -3.68294313       -3.49364998        0.30378769 
N     -4.29994267       -2.42478382        1.09024427 
C     -4.37055469       -4.87923905        0.39903442 
H     -1.89845761       -4.58250562       -0.97091601 
H     -3.72979902       -3.18450484       -0.75734274 
H     -4.16572468       -2.60751792        2.08835415 
H     -5.30694609       -2.41584949        0.92282420 
H     -4.41160908       -5.23275989        1.44030617 
H     -5.40461925       -4.78264731        0.03006216 
H     -3.88360062       -5.65693349       -0.20958767 
14
Iteration: 35
Ca      0.00000000        0.00000000        0.00000000 
O     -1.64901342       -2.85602475        1.53895896 
C     -2.18943634       -3.47971548        0.61306981 
O     -1.39153069       -4.16558875       -0.27160226 
C     -3.69035065       -3.48749611        0.29955785 
N     -4.31290130       -2.42561123        1.08773387 
C     -4.36058972       -4.88540295        0.40518561 
H     -1.93886524       -4.64693732       -0.93729532 
H     -3.75583311       -3.17413668       -0.76552726 
H     -4.16587366       -2.60026719        2.08775242 
H     -5.32866508       -2.43682772        0.93864731 
H     -4.40153061       -5.24057649        1.44177888 
H     -5.38641263       -4.79650769        0.02511414 
H     -3.86965265       -5.66214634       -0.20300686 
14
Iteration: 36
Ca      0.00000000        0.00000000        0.00000000 
O     -1.63042496       -2.77735266        1.45552309 
C     -2.18934579       -3.44808770        0.57385602 
O     -1.40863516       -4.16833222       -0.29178674 
C     -3.69919975       -3.47874924        0.29402797 
N     -4.32934623       -2.42617121        1.08181042 
C     -4.34650137       -4.88549089        0.41358064 
H     -1.96849449       -4.69580689       -0.91044568 
H     -3.78144209       -3.16933757       -0.76965487 
H     -4.17027073       -2.59456390        2.08120578 
H     -5.34772276       -2.45448556        0.94480723 
H     -4.37798437       -5.24512636        1.45245060 
H     -5.38059339       -4.81803418        0.03709432 
H     -3.85305472       -5.66031941       -0.19324935 
14
Iteration: 37
Ca      0.00000000        0.00000000        0.00000000 
O     -1.62410699       -2.72619753        1.32325178 
C     -2.21004283       -3.43028447        0.52871244 
O     -1.43468046       -4.20683099       -0.27775845 
C     -3.71116915       -3.46290125        0.29258841 
N     -4.33797963       -2.42485574        1.09302556 
C     -4.32333409       -4.87595644        0.41144591 
H     -1.99555903       -4.73713564       -0.81432162 
H     -3.80529015       -3.14233730       -0.76776944 
H     -4.19388183       -2.60462352        2.09254899 
H     -5.35491451       -2.45040177        0.96214989 
H     -4.34633680       -5.26580204        1.43928421 
H     -5.34901169       -4.83042417        0.03979009 
H     -3.82389224       -5.64150450       -0.20951756 
14
Iteration: 38
Ca      0.00000000        0.00000000        0.00000000 
O     -1.62441948       -2.67453635        1.30199171 
C     -2.19426185       -3.41193729        0.52099609 
O     -1.43572962       -4.19324479       -0.28424563 
C     -3.70944533       -3.46306992        0.29781464 
N     -4.34602763       -2.42773949        1.10267332 