  MPI-parallelism will be employed.
------------------------------------------------------------
          Invoking FHI-aims ...
          Version 160328_3
          Compiled on 2017/02/27 at 14:26:39 on host eos01.

          When using FHI-aims, please cite the following reference:

          Volker Blum, Ralf Gehrke, Felix Hanke, Paula Havu,
          Ville Havu, Xinguo Ren, Karsten Reuter, and Matthias Scheffler,
          'Ab Initio Molecular Simulations with Numeric Atom-Centered Orbitals',
          Computer Physics Communications 180, 2175-2196 (2009)

          For any questions about FHI-aims, please visit the aimsclub website
          with its forums and wiki. Contributions to both the forums and the
          wiki are warmly encouraged - they are for you, and everyone is welcome there.

------------------------------------------------------------

  Date     :  20170702, Time     :  203427.809
  Time zero on CPU 1             :   0.552034000000000E+00  s.
  Internal wall clock time zero  :           268259667.809  s.

  Using       64 parallel tasks.
  Task        0 on host eos337 reporting.
  Task        1 on host eos337 reporting.
  Task        2 on host eos337 reporting.
  Task        3 on host eos337 reporting.
  Task        4 on host eos337 reporting.
  Task        5 on host eos337 reporting.
  Task        6 on host eos337 reporting.
  Task        7 on host eos337 reporting.
  Task        8 on host eos337 reporting.
  Task        9 on host eos337 reporting.
  Task       10 on host eos337 reporting.
  Task       11 on host eos337 reporting.
  Task       12 on host eos337 reporting.
  Task       13 on host eos337 reporting.
  Task       14 on host eos337 reporting.
  Task       15 on host eos337 reporting.
  Task       16 on host eos337 reporting.
  Task       17 on host eos337 reporting.
  Task       18 on host eos337 reporting.
  Task       19 on host eos337 reporting.
  Task       20 on host eos337 reporting.
  Task       21 on host eos337 reporting.
  Task       22 on host eos337 reporting.
  Task       23 on host eos337 reporting.
  Task       24 on host eos337 reporting.
  Task       25 on host eos337 reporting.
  Task       26 on host eos337 reporting.
  Task       27 on host eos337 reporting.
  Task       28 on host eos337 reporting.
  Task       29 on host eos337 reporting.
  Task       30 on host eos337 reporting.
  Task       31 on host eos337 reporting.
  Task       32 on host eos068 reporting.
  Task       33 on host eos068 reporting.
  Task       34 on host eos068 reporting.
  Task       35 on host eos068 reporting.
  Task       36 on host eos068 reporting.
  Task       37 on host eos068 reporting.
  Task       38 on host eos068 reporting.
  Task       39 on host eos068 reporting.
  Task       40 on host eos068 reporting.
  Task       41 on host eos068 reporting.
  Task       42 on host eos068 reporting.
  Task       43 on host eos068 reporting.
  Task       44 on host eos068 reporting.
  Task       45 on host eos068 reporting.
  Task       46 on host eos068 reporting.
  Task       47 on host eos068 reporting.
  Task       48 on host eos068 reporting.
  Task       49 on host eos068 reporting.
  Task       50 on host eos068 reporting.
  Task       51 on host eos068 reporting.
  Task       52 on host eos068 reporting.
  Task       53 on host eos068 reporting.
  Task       54 on host eos068 reporting.
  Task       55 on host eos068 reporting.
  Task       56 on host eos068 reporting.
  Task       57 on host eos068 reporting.
  Task       58 on host eos068 reporting.
  Task       59 on host eos068 reporting.
  Task       60 on host eos068 reporting.
  Task       61 on host eos068 reporting.
  Task       62 on host eos068 reporting.
  Task       63 on host eos068 reporting.

  Performing system and environment tests:
  *** Environment variable OMP_NUM_THREADS is not set
  *** For performance reasons you might want to set it to 1
  | Stacksize not measured: no C compiler
  | Checking for scalapack...
  | Testing pdtran()...
  | All pdtran() tests passed.

  Obtaining array dimensions for all initial allocations:
  
  -----------------------------------------------------------------------
  Parsing control.in (first pass over file, find array dimensions only).
  The contents of control.in will be repeated verbatim below
  unless switched off by setting 'verbatim_writeout .false.' .
  in the first line of control.in .
  -----------------------------------------------------------------------
  
  #########################################################################################
  #
  #  Volker Blum, FHI 2009 : Test run input file control.in for simple H2O
  #
  #########################################################################################
  #
  #  Physical model
  #
    xc                 pbe
  # many_body_dispersion
    vdw_correction_hirshfeld
    relativistic       atomic_zora scalar
    charge             1.0
  #
  #  SCF convergence
  #
    sc_accuracy_rho    1E-3
    sc_accuracy_eev    1E-2
    sc_accuracy_etot   1E-5
    sc_accuracy_forces 5E-3
    sc_iter_limit      1000
  #
  #  Relaxation
  #
  #RI_method LVL_fast
    relax_geometry trm 5E-3
  check_cpu_consistency .false.
  cpu_consistency_threshold 5E-3
  #  relax_geometry   bfgs_textbook 1.e-2
  #
  ################################################################################
  #
  #  FHI-aims code project
  #  VB, Fritz-Haber Institut, 2009
  #
  #  Suggested "light" defaults for H atom (to be pasted into control.in file)
  #  Be sure to double-check any results obtained with these settings for post-processing,
  #  e.g., with the "tight" defaults and larger basis sets.
  #
  ################################################################################
    species        H
  #     global species definitions
      nucleus             1
      mass                1.00794
  #
      l_hartree           3
  #
      cut_pot             3.0  1.5  1.0
      basis_dep_cutoff    1e-4
  #
      radial_base         24 5.0
      radial_multiplier   1
      angular_grids       specified
        division   0.2421   50
        division   0.3822  110
  #      division   0.4799  194
  #      division   0.5341  302
  #      division   0.5626  434
  #      division   0.5922  590
  #      division   0.6542  770
  #      division   0.6868 1202
  #      outer_grid  770
        outer_grid  110
  ################################################################################
  #
  #  Definition of "minimal" basis
  #
  ################################################################################
  #     valence basis states
      valence      1  s   1.
  #     ion occupancy
      ion_occ      1  s   0.5
  ################################################################################
  #
  #  Suggested additional basis functions. For production calculations,
  #  uncomment them one after another (the most important basis functions are
  #  listed first).
  #
  #  Basis constructed for dimers: 0.5 A, 0.7 A, 1.0 A, 1.5 A, 2.5 A
  #
  ################################################################################
  #  "First tier" - improvements: -1014.90 meV to -62.69 meV
       hydro 2 s 2.1
       hydro 2 p 3.5
  #  "Second tier" - improvements: -12.89 meV to -1.83 meV
  #     hydro 1 s 0.85
  #     hydro 2 p 3.7
  #     hydro 2 s 1.2
  #     hydro 3 d 7
  #  "Third tier" - improvements: -0.25 meV to -0.12 meV
  #     hydro 4 f 11.2
  #     hydro 3 p 4.8
  #     hydro 4 d 9
  #     hydro 3 s 3.2
  
  ################################################################################
  #
  #  FHI-aims code project
  #  VB, Fritz-Haber Institut, 2009
  #
  #  Suggested "light" defaults for O atom (to be pasted into control.in file)
  #  Be sure to double-check any results obtained with these settings for post-processing,
  #  e.g., with the "tight" defaults and larger basis sets.
  #
  ################################################################################
    species        O
  #     global species definitions
      nucleus             8
      mass                15.9994
  #
      l_hartree           3
  #
      cut_pot             3.0  1.5  1.0
      basis_dep_cutoff    1e-4
  #
      radial_base         36 5.0
      radial_multiplier   1
       angular_grids specified
        division   0.2659   50
        division   0.4451  110
        division   0.6052  194
  #      division   0.7543  302
  #      division   0.8014  434
  #      division   0.8507  590
  #      division   0.8762  770
  #      division   0.9023  974
  #      division   1.2339 1202
  #      outer_grid 974
        outer_grid 194
  ################################################################################
  #
  #  Definition of "minimal" basis
  #
  ################################################################################
  #     valence basis states
      valence      2  s   2.
      valence      2  p   4.
  #     ion occupancy
      ion_occ      2  s   1.
      ion_occ      2  p   3.
  ################################################################################
  #
  #  Suggested additional basis functions. For production calculations,
  #  uncomment them one after another (the most important basis functions are
  #  listed first).
  #
  #  Constructed for dimers: 1.0 A, 1.208 A, 1.5 A, 2.0 A, 3.0 A
  #
  ################################################################################
  #  "First tier" - improvements: -699.05 meV to -159.38 meV
       hydro 2 p 1.8
       hydro 3 d 7.6
       hydro 3 s 6.4
  #  "Second tier" - improvements: -49.91 meV to -5.39 meV
  #     hydro 4 f 11.6
  #     hydro 3 p 6.2
  #     hydro 3 d 5.6
  #     hydro 5 g 17.6
  #     hydro 1 s 0.75
  #  "Third tier" - improvements: -2.83 meV to -0.50 meV
  #     ionic 2 p auto
  #     hydro 4 f 10.8
  #     hydro 4 d 4.7
  #     hydro 2 s 6.8
  #  "Fourth tier" - improvements: -0.40 meV to -0.12 meV
  #     hydro 3 p 5
  #     hydro 3 s 3.3
  #     hydro 5 g 15.6
  #     hydro 4 f 17.6
  #     hydro 4 d 14
  # Further basis functions - -0.08 meV and below
  #     hydro 3 s 2.1
  #     hydro 4 d 11.6
  #     hydro 3 p 16
  #     hydro 2 s 17.2
  ################################################################################
  #
  #  FHI-aims code project
  #  VB, Fritz-Haber Institut, 2009
  #
  #  Suggested "light" defaults for C atom (to be pasted into control.in file)
  #  Be sure to double-check any results obtained with these settings for post-processing,
  #  e.g., with the "tight" defaults and larger basis sets.
  #
  ################################################################################
    species        C
  #     global species definitions
      nucleus             6
      mass                12.0107
  #
      l_hartree           3
  #
      cut_pot             3.0  1.5  1.0
      basis_dep_cutoff    1e-4
  #
      radial_base         34 5.0
      radial_multiplier   1
      angular_grids specified
        division   0.3326   50
        division   0.5710  110
        division   0.7727  194
  #      division   0.8772  302
  #      division   0.9334  434
  #      division   0.9625  590
  #      division   0.9924  770
  #      division   1.0230  974
  #      division   1.4589 1202
  #     outer_grid  974
       outer_grid 194
  ################################################################################
  #
  #  Definition of "minimal" basis
  #
  ################################################################################
  #     valence basis states
      valence      2  s   2.
      valence      2  p   2.
  #     ion occupancy
      ion_occ      2  s   1.
      ion_occ      2  p   1.
  ################################################################################
  #
  #  Suggested additional basis functions. For production calculations,
  #  uncomment them one after another (the most important basis functions are
  #  listed first).
  #
  #  Constructed for dimers: 1.0 A, 1.25 A, 1.5 A, 2.0 A, 3.0 A
  #
  ################################################################################
  #  "First tier" - improvements: -1214.57 meV to -155.61 meV
       hydro 2 p 1.7
       hydro 3 d 6
       hydro 2 s 4.9
  #  "Second tier" - improvements: -67.75 meV to -5.23 meV
  #     hydro 4 f 9.8
  #     hydro 3 p 5.2
  #     hydro 3 s 4.3
  #     hydro 5 g 14.4
  #     hydro 3 d 6.2
  #  "Third tier" - improvements: -2.43 meV to -0.60 meV
  #     hydro 2 p 5.6
  #     hydro 2 s 1.4
  #     hydro 3 d 4.9
  #     hydro 4 f 11.2
  #  "Fourth tier" - improvements: -0.39 meV to -0.18 meV
  #     hydro 2 p 2.1
  #     hydro 5 g 16.4
  #     hydro 4 d 13.2
  #     hydro 3 s 13.6
  #     hydro 4 f 17.6
  #  Further basis functions - improvements: -0.08 meV and below
  #     hydro 3 s 2
  #     hydro 3 p 6
  #     hydro 4 d 20
  ################################################################################
  #
  #  FHI-aims code project
  #  VB, Fritz-Haber Institut, 2009
  #
  #  Suggested "light" defaults for N atom (to be pasted into control.in file)
  #  Be sure to double-check any results obtained with these settings for post-processing,
  #  e.g., with the "tight" defaults and larger basis sets.
  #
  ################################################################################
    species        N
  #     global species definitions
      nucleus             7
      mass                14.0067
  #
      l_hartree           3
  #
      cut_pot             3.0  1.5  1.0
      basis_dep_cutoff    1e-4
  #
      radial_base         35 5.0
      radial_multiplier   1
      angular_grids       specified
        division   0.2599   50
        division   0.4601  110
        division   0.5885  194
  #      division   0.6503  302
  #      division   0.6939  434
  #      division   0.7396  590
  #      division   0.7632  770
  #      division   0.8122  974
  #      division   1.1604 1202
  #      outer_grid  974
        outer_grid  110
  ################################################################################
  #
  #  Definition of "minimal" basis
  #
  ################################################################################
  #     valence basis states
      valence      2  s   2.
      valence      2  p   3.
  #     ion occupancy
      ion_occ      2  s   1.
      ion_occ      2  p   2.
  ################################################################################
  #
  #  Suggested additional basis functions. For production calculations,
  #  uncomment them one after another (the most important basis functions are
  #  listed first).
  #
  #  Constructed for dimers: 1.0 A, 1.1 A, 1.5 A, 2.0 A, 3.0 A
  #
  ################################################################################
  #  "First tier" - improvements: -1193.42 meV to -220.60 meV
       hydro 2 p 1.8
       hydro 3 d 6.8
       hydro 3 s 5.8
  #  "Second tier" - improvements: -80.21 meV to -6.86 meV
  #     hydro 4 f 10.8
  #     hydro 3 p 5.8
  #     hydro 1 s 0.8
  #     hydro 5 g 16
  #     hydro 3 d 4.9
  #  "Third tier" - improvements: -4.29 meV to -0.53 meV
  #     hydro 3 s 16
  #     ionic 2 p auto
  #     hydro 3 d 6.6
  #     hydro 4 f 11.6
  #  "Fourth tier" - improvements: -0.75 meV to -0.25 meV
  #     hydro 2 p 4.5
  #     hydro 2 s 2.4
  #     hydro 5 g 14.4
  #     hydro 4 d 14.4
  #     hydro 4 f 16.8
  # Further basis functions - -0.21 meV and below
  #     hydro 3 p 14.8
  #     hydro 3 s 4.4
  #     hydro 3 d 19.6
  #     hydro 5 g 12.8
  
  
  
  ################################################################################
    species        Na
  #     global species definitions
      nucleus             11
      mass                22.98976928
  #
      l_hartree           3
  #
      cut_pot             4.0          1.5  1.0
      basis_dep_cutoff    1e-4
  #
      radial_base         40 5.5
      radial_multiplier   1
      angular_grids       specified
        division   0.5925  110
        division   0.7843  194
  #      division   1.0201  302
  #      division   1.1879  434
  #      division   1.3799  590
  #      division   1.4503  770
  #      division   7.0005  974
  #      outer_grid  974
        outer_grid  110
  ################################################################################
  #
  #  Definition of "minimal" basis
  #
  ################################################################################
  #     valence basis states
      valence      3  s   1.
      valence      2  p   6.
  #     ion occupancy
      ion_occ      2  s   2.
      ion_occ      2  p   6.
  ################################################################################
  #
  #  Suggested additional basis functions. For production calculations,
  #  uncomment them one after another (the most important basis functions are
  #  listed first).
  #
  #  Constructed for dimers: 2.0 A, 2.5 A, 3.0 A, 3.75 A, 4.5 A
  #
  ################################################################################
  #  "First tier" - improvements: -60.09 meV to -10.02 meV
       hydro 2 p 1.2
       hydro 3 s 1.8
       hydro 3 d 3.8
  #  "Second tier" - improvements: -2.94 meV to -1.27 meV
  #     hydro 4 p 3.1
  #     hydro 3 s 10
  #     hydro 4 f 6.2
  #     hydro 4 d 1.3
  #  "Third tier" - improvements: -0.83 meV to -0.07 meV
  #     hydro 3 d 7.8
  #     hydro 3 p 2.3
  #     hydro 5 g 9.6
  #     hydro 4 p 0.85
  #     hydro 5 f 1.8
  #     hydro 2 s 0.6
  #  Further basis functions that fell out of the optimization - noise level...
  #     hydro 5 g 0.1
  #     hydro 4 d 3.4
  #     hydro 4 s 0.1
  ################################################################################
  #
  #  FHI-aims code project
  #  VB, Fritz-Haber Institut, 2009
  #
  #  Suggested "light" defaults for Ca atom (to be pasted into control.in file)
  #  Be sure to double-check any results obtained with these settings for post-processing,
  #  e.g., with the "tight" defaults and larger basis sets.
  #
  ################################################################################
    species        Ca
  #     global species definitions
      nucleus             20
      mass                40.078
  #
      l_hartree           3
  #
      cut_pot             4.0          1.5  1.0
      basis_dep_cutoff    1e-4
  #
      radial_base         47 5.5
      radial_multiplier   1
      angular_grids       specified
       division   0.5361  110
       division   0.7866  194
  #     division   0.9689  302
  #     division   1.0269  434
  #     division   1.2909  590
  #     division   1.3280  770
  #     division   1.4872  974
  #     outer_grid  974
       outer_grid  194
  ################################################################################
  #
  #  Definition of "minimal" basis
  #
  #  Note: Ca+ ionic basis functions perform better than Ca2+ ionic
  #  basis functions for the neutral Ca dimer. This is why they are used here.
  #
  ################################################################################
  #     valence basis states
      valence      4  s   2.
      valence      3  p   6.
  #     ion occupancy
      ion_occ      4  s   1.
      ion_occ      3  p   6.
  ################################################################################
  #
  #  Suggested additional basis functions. For production calculations,
  #  uncomment them one after another (the most important basis functions are
  #  listed first).
  #
  #  Constructed for dimers: 2.5 A, 3.0 A, 3.5 A, 4.0 A, 5.0 A
  #
  #  Ca appears to require two d functions in tier 1, because the atomic configuration
  #  does not provide a 3d valence function.
  #
  ################################################################################
  #  "First tier" - improvements: -486.29 meV to -11.73 meV
       ionic 3 d auto
       ionic 4 p auto
       hydro 3 d 2.3
  #     hydro 4 f 4.8
       ionic 4 s auto
  #  "Second tier" - improvements: -6.34 meV to -0.27 meV
  #     hydro 5 g 6.8
  #     hydro 3 p 3.8
  #     hydro 6 h 10.4
  #     hydro 1 s 0.55
  #     hydro 5 f 9.2
  #     hydro 5 p 3.3
  #     hydro 4 d 5
  #  "Third tier" - improvements: -0.18 meV to -0.06 meV
  #     hydro 5 p 5.4
  #     hydro 5 f 5
  #     hydro 5 s 4.6
  #     hydro 2 p 4.2
  #     hydro 5 g 9.8
  #     hydro 4 d 5.2
  #  Two extra functions (no real "tier") - improvements: -0.07 meV, -0.05 meV
  #     hydro 4 f 8.8
  #     hydro 2 p 1.2
  
  -----------------------------------------------------------------------
  Completed first pass over input file control.in .
  -----------------------------------------------------------------------
  
  
  -----------------------------------------------------------------------
  Parsing geometry.in (first pass over file, find array dimensions only).
  The contents of geometry.in will be repeated verbatim below
  unless switched off by setting 'verbatim_writeout .false.' .
  in the first line of geometry.in .
  -----------------------------------------------------------------------
  
  atom   0.0   0.0   0.0   Ca
  constrain_relaxation .true.
  atom    3.5580   -5.7874   -0.7062   O
  atom    3.6762   -5.1916   -1.8100   C
  atom    4.9084   -5.2015   -2.4582   O
  atom    2.4846   -4.5219   -2.4402   C
  atom    1.7622   -3.7309   -1.4411   N
  atom    1.5683   -5.5654   -3.0898   C
  atom    5.0346   -4.7549   -3.3586   H
  atom    2.8444   -3.8330   -3.2361   H
  atom    1.2816   -4.3710   -0.7667   H
  atom    1.0170   -3.1808   -1.9275   H
  atom    1.1877   -6.2824   -2.3308   H
  atom    0.7037   -5.0632   -3.5733   H
  atom    2.1250   -6.1289   -3.8691   H
  
  -----------------------------------------------------------------------
  Completed first pass over input file geometry.in .
  -----------------------------------------------------------------------
  

  Basic array size parameters:
  | Number of species                 :        6
  | Number of atoms                   :       14
  | Max. basis fn. angular momentum   :        2
  | Max. atomic/ionic basis occupied n:        4
  | Max. number of basis fn. types    :        3
  | Max. radial fns per species/type  :        6
  | Max. logarithmic grid size        :     1376
  | Max. radial integration grid size :       47
  | Max. angular integration grid size:      194
  | Max. angular grid division number :        8
  | Radial grid for Hartree potential :     1376
  | Number of spin channels           :        1

------------------------------------------------------------
          Reading file control.in.
------------------------------------------------------------
  XC: Using PBE gradient-corrected functionals.
  Scalar relativistic treatment of kinetic energy: on-site free-atom approximation to ZORA.
  Charged system requested: Charge =   0.100000E+01.
  Convergence accuracy of self-consistent charge density:  0.1000E-02
  Convergence accuracy of sum of eigenvalues:  0.1000E-01
  Convergence accuracy of total energy:  0.1000E-04
  Convergence accuracy of forces:  0.5000E-02
  Maximum number of s.-c. iterations  :  1000
  Geometry relaxation: Modified BFGS - TRM (trust radius method, i.e., trusted quadratic extrapolation).
  Convergence accuracy for geometry relaxation: Maximum force <   0.500000E-02 eV/A.
  Consistency of geometry between different MPI tasks will NOT be checked.
  cpu_consistency_threshold set to   0.50000000E-02.
 
  Reading configuration options for species H                   .
  | Found nuclear charge :   1.0000
  | Found atomic mass :    1.00794000000000      amu
  | Found l_max for Hartree potential  :   3
  | Found cutoff potl. onset [A], width [A], scale factor :    3.00000    1.50000    1.00000
  | Threshold for basis-dependent cutoff potential is   0.100000E-03
  | Found data for basic radial integration grid :    24 points, outermost radius =    5.000 A
  | Found multiplier for basic radial grid :   1
  | Found angular grid specification: user-specified.
  | Specified grid contains     3 separate shells.
  | Check grid settings after all constraints further below.
  | Found free-atom valence shell :  1 s   1.000
  | Found free-ion valence shell :  1 s   0.500
  | Found hydrogenic basis function :  2 s   2.100
  | Found hydrogenic basis function :  2 p   3.500
  Species H                   : Missing cutoff potential type.
  Defaulting to exp(1/x)/(1-x)^2 type cutoff potential.
  Species H : No 'logarithmic' tag. Using default grid for free atom:
  | Default logarithmic grid data [bohr] : 0.1000E-03 0.1000E+03 0.1012E+01
  Species H : On-site basis accuracy parameter (for Gram-Schmidt orthonormalisation) not specified.
  Using default value basis_acc =  0.1000000E-03.
  Species H                   : Using default innermost maximum threshold i_radial=  2 for radial functions.
  Species H                   : Default cutoff onset for free atom density etc. : 0.30000000E+01 AA.
  Species H                   : Basic radial grid will be enhanced according to radial_multiplier =   1, to contain    24 grid points.
 
  Reading configuration options for species O                   .
  | Found nuclear charge :   8.0000
  | Found atomic mass :    15.9994000000000      amu
  | Found l_max for Hartree potential  :   3
  | Found cutoff potl. onset [A], width [A], scale factor :    3.00000    1.50000    1.00000
  | Threshold for basis-dependent cutoff potential is   0.100000E-03
  | Found data for basic radial integration grid :    36 points, outermost radius =    5.000 A
  | Found multiplier for basic radial grid :   1
  | Found angular grid specification: user-specified.
  | Specified grid contains     4 separate shells.
  | Check grid settings after all constraints further below.
  | Found free-atom valence shell :  2 s   2.000
  | Found free-atom valence shell :  2 p   4.000
  | Found free-ion valence shell :  2 s   1.000
  | Found free-ion valence shell :  2 p   3.000
  | Found hydrogenic basis function :  2 p   1.800
  | Found hydrogenic basis function :  3 d   7.600
  | Found hydrogenic basis function :  3 s   6.400
  Species O                   : Missing cutoff potential type.
  Defaulting to exp(1/x)/(1-x)^2 type cutoff potential.
  Species O : No 'logarithmic' tag. Using default grid for free atom:
  | Default logarithmic grid data [bohr] : 0.1000E-03 0.1000E+03 0.1012E+01
  Species O : On-site basis accuracy parameter (for Gram-Schmidt orthonormalisation) not specified.
  Using default value basis_acc =  0.1000000E-03.
  Species O                   : Using default innermost maximum threshold i_radial=  2 for radial functions.
  Species O                   : Default cutoff onset for free atom density etc. : 0.30000000E+01 AA.
  Species O                   : Basic radial grid will be enhanced according to radial_multiplier =   1, to contain    36 grid points.
 
  Reading configuration options for species C                   .
  | Found nuclear charge :   6.0000
  | Found atomic mass :    12.0107000000000      amu
  | Found l_max for Hartree potential  :   3
  | Found cutoff potl. onset [A], width [A], scale factor :    3.00000    1.50000    1.00000
  | Threshold for basis-dependent cutoff potential is   0.100000E-03
  | Found data for basic radial integration grid :    34 points, outermost radius =    5.000 A
  | Found multiplier for basic radial grid :   1
  | Found angular grid specification: user-specified.
  | Specified grid contains     4 separate shells.
  | Check grid settings after all constraints further below.
  | Found free-atom valence shell :  2 s   2.000
  | Found free-atom valence shell :  2 p   2.000
  | Found free-ion valence shell :  2 s   1.000
  | Found free-ion valence shell :  2 p   1.000
  | Found hydrogenic basis function :  2 p   1.700
  | Found hydrogenic basis function :  3 d   6.000
  | Found hydrogenic basis function :  2 s   4.900
  Species C                   : Missing cutoff potential type.
  Defaulting to exp(1/x)/(1-x)^2 type cutoff potential.
  Species C : No 'logarithmic' tag. Using default grid for free atom:
  | Default logarithmic grid data [bohr] : 0.1000E-03 0.1000E+03 0.1012E+01
  Species C : On-site basis accuracy parameter (for Gram-Schmidt orthonormalisation) not specified.
  Using default value basis_acc =  0.1000000E-03.
  Species C                   : Using default innermost maximum threshold i_radial=  2 for radial functions.
  Species C                   : Default cutoff onset for free atom density etc. : 0.30000000E+01 AA.
  Species C                   : Basic radial grid will be enhanced according to radial_multiplier =   1, to contain    34 grid points.
 
  Reading configuration options for species N                   .
  | Found nuclear charge :   7.0000
  | Found atomic mass :    14.0067000000000      amu
  | Found l_max for Hartree potential  :   3
  | Found cutoff potl. onset [A], width [A], scale factor :    3.00000    1.50000    1.00000
  | Threshold for basis-dependent cutoff potential is   0.100000E-03
  | Found data for basic radial integration grid :    35 points, outermost radius =    5.000 A
  | Found multiplier for basic radial grid :   1
  | Found angular grid specification: user-specified.
  | Specified grid contains     4 separate shells.
  | Check grid settings after all constraints further below.
  | Found free-atom valence shell :  2 s   2.000
  | Found free-atom valence shell :  2 p   3.000
  | Found free-ion valence shell :  2 s   1.000
  | Found free-ion valence shell :  2 p   2.000
  | Found hydrogenic basis function :  2 p   1.800
  | Found hydrogenic basis function :  3 d   6.800
  | Found hydrogenic basis function :  3 s   5.800
  Species N                   : Missing cutoff potential type.
  Defaulting to exp(1/x)/(1-x)^2 type cutoff potential.
  Species N : No 'logarithmic' tag. Using default grid for free atom:
  | Default logarithmic grid data [bohr] : 0.1000E-03 0.1000E+03 0.1012E+01
  Species N : On-site basis accuracy parameter (for Gram-Schmidt orthonormalisation) not specified.
  Using default value basis_acc =  0.1000000E-03.
  Species N                   : Using default innermost maximum threshold i_radial=  2 for radial functions.
  Species N                   : Default cutoff onset for free atom density etc. : 0.30000000E+01 AA.
  Species N                   : Basic radial grid will be enhanced according to radial_multiplier =   1, to contain    35 grid points.
 
  Reading configuration options for species Na                  .
  | Found nuclear charge :  11.0000
  | Found atomic mass :    22.9897692800000      amu
  | Found l_max for Hartree potential  :   3
  | Found cutoff potl. onset [A], width [A], scale factor :    4.00000    1.50000    1.00000
  | Threshold for basis-dependent cutoff potential is   0.100000E-03
  | Found data for basic radial integration grid :    40 points, outermost radius =    5.500 A
  | Found multiplier for basic radial grid :   1
  | Found angular grid specification: user-specified.
  | Specified grid contains     3 separate shells.
  | Check grid settings after all constraints further below.
  | Found free-atom valence shell :  3 s   1.000
  | Found free-atom valence shell :  2 p   6.000
  | Found free-ion valence shell :  2 s   2.000
  | Found free-ion valence shell :  2 p   6.000
  | Found hydrogenic basis function :  2 p   1.200
  | Found hydrogenic basis function :  3 s   1.800
  | Found hydrogenic basis function :  3 d   3.800
  Species Na                  : Missing cutoff potential type.
  Defaulting to exp(1/x)/(1-x)^2 type cutoff potential.
  Species Na: No 'logarithmic' tag. Using default grid for free atom:
  | Default logarithmic grid data [bohr] : 0.1000E-03 0.1000E+03 0.1012E+01
  Species Na: On-site basis accuracy parameter (for Gram-Schmidt orthonormalisation) not specified.
  Using default value basis_acc =  0.1000000E-03.
  Species Na                  : Using default innermost maximum threshold i_radial=  2 for radial functions.
  Species Na                  : Default cutoff onset for free atom density etc. : 0.40000000E+01 AA.
  Species Na                  : Basic radial grid will be enhanced according to radial_multiplier =   1, to contain    40 grid points.
 
  Reading configuration options for species Ca                  .
  | Found nuclear charge :  20.0000
  | Found atomic mass :    40.0780000000000      amu
  | Found l_max for Hartree potential  :   3
  | Found cutoff potl. onset [A], width [A], scale factor :    4.00000    1.50000    1.00000
  | Threshold for basis-dependent cutoff potential is   0.100000E-03
  | Found data for basic radial integration grid :    47 points, outermost radius =    5.500 A
  | Found multiplier for basic radial grid :   1
  | Found angular grid specification: user-specified.
  | Specified grid contains     3 separate shells.
  | Check grid settings after all constraints further below.
  | Found free-atom valence shell :  4 s   2.000
  | Found free-atom valence shell :  3 p   6.000
  | Found free-ion valence shell :  4 s   1.000
  | Found free-ion valence shell :  3 p   6.000
  | Found ionic basis function :  3 d , default cutoff radius.
  | Found ionic basis function :  4 p , default cutoff radius.
  | Found hydrogenic basis function :  3 d   2.300
  | Found ionic basis function :  4 s , default cutoff radius.
  Species Ca                  : Missing cutoff potential type.
  Defaulting to exp(1/x)/(1-x)^2 type cutoff potential.
  Species Ca: No 'logarithmic' tag. Using default grid for free atom:
  | Default logarithmic grid data [bohr] : 0.1000E-03 0.1000E+03 0.1012E+01
  | Will include ionic basis functions of  1.0-fold positive Ca                   ion.
  Species Ca: On-site basis accuracy parameter (for Gram-Schmidt orthonormalisation) not specified.
  Using default value basis_acc =  0.1000000E-03.
  Species Ca                  : Using default innermost maximum threshold i_radial=  2 for radial functions.
  Species Ca                  : Default cutoff onset for free atom density etc. : 0.40000000E+01 AA.
  Species Ca                  : Basic radial grid will be enhanced according to radial_multiplier =   1, to contain    47 grid points.
 
  Finished reading input file 'control.in'. Consistency checks are next.
 
  Target number of points in a grid batch is not set. Defaulting to  100
  Method for grid partitioning is not set. Defaulting to parallel hash+maxmin partitioning.
  Batch size limit is not set. Defaulting to    200
  By default, will store active basis functions for each batch.
  If in need of memory, prune_basis_once .false. can be used to disable this option.
  communication_type for Hartree potential was not specified.
  Defaulting to calc_hartree .
  Defaulting to Pulay charge density mixer.
  Pulay mixer: Number of relevant iterations not set.
  Defaulting to    8 iterations.
  Pulay mixer: Number of initial linear mixing iterations not set.
  Defaulting to    0 iterations.
  Work space size for distributed Hartree potential not set.
  Defaulting to   0.200000E+03 MB.
  Mixing parameter for charge density mixing has not been set.
  Using default: charge_mix_param =     0.2000.
  Algorithm-dependent basis array size parameters:
  | n_max_pulay                         :        8
  No maximum number of relaxation steps, defaulting to     1000
  Default initial Hessian is Lindh matrix (thres = 15.00) plus  0.200000E+01 eV/A^2 times unity.
  No maximum energy tolerance for TRM/BFGS moves, defaulting to   0.200000E-03
  No harmonic length scale. Defaulting to   0.250000E-01 A.
  No trust radius initializer. Defaulting to   0.200000E+00 A.
  Required force accuracy for relaxation overrides required scf force convergence accuracy.
  Defaulting to  0.1000E-02 eV/A.
  Handling of forces: Unphysical translation and rotation will be removed from forces.
  No accuracy limit for integral partition fn. given. Defaulting to  0.1000E-14.
  No threshold value for u(r) in integrations given. Defaulting to  0.1000E-05.
  No occupation type (smearing scheme) given. Defaulting to Gaussian broadening, width =  0.1000E-01 eV.
  No accuracy for occupation numbers given. Defaulting to  0.1000E-07.
  No threshold value for occupation numbers given. Defaulting to  0.0000E+00.
  No accuracy for fermi level given. Defaulting to  0.1000E-19.
  Maximum # of iterations to find E_F not set. Defaulting to  200.
  Preferred method for the eigenvalue solver ('KS_method') not specified in 'control.in'.
  Calling blacs routine to test compilation state
  Since scalapack support is enabled, defaulting to 'elpa'.
  Will not use alltoall communication since running on < 1024 CPUs.
  Threshold for basis singularities not set.
  Default threshold for basis singularities:  0.1000E-04
  partition_type (choice of integration weights) for integrals was not specified.
  | Using a version of the partition function of Stratmann and coworkers ('stratmann_smoother').
  | At each grid point, the set of atoms used to build the partition table is smoothly restricted to
  | only those atoms whose free-atom density would be non-zero at that grid point.
  Partitioning for Hartree potential was not defined. Using partition_type for integrals.
  | Adjusted default value of keyword multip_moments_threshold to:       0.10000000E-11
  | This value may affect high angular momentum components of the Hartree potential in periodic systems.
  Spin handling was not defined in control.in. Defaulting to unpolarized case.
  No q(lm)/r^(l+1) cutoff set for long-range Hartree potential.
  | Using default value of  0.100000E-09 .
  | Verify using the multipole_threshold keyword.
  Defaulting to new monopole extrapolation.
  Density update method: automatic selection selected.
  Geometry relaxation: A file "geometry.in.next_step" is written out by default after each step.
  | This file contains the geometry of the current relaxation step as well as
  | the current Hessian matrix needed to restart the relaxation algorithm.
  | If you do not want part or all of this information, use the keywords
  | "write_restart_geometry" or "hessian_to_restart_geometry" to switch the output off.
------------------------------------------------------------


------------------------------------------------------------
          Reading geometry description geometry.in.
------------------------------------------------------------
  Found relaxation constraint for atom      1: All coordinates fixed.
 * Warning: Initial charge and total charge of the system are inconsistent.
 * Selected charge in control.in:     1.0000* Sum of initial charges in geometry.in:     0.0000
  Input structure read successfully.
  The structure contains       14 atoms,  and a total of         67.000 electrons.

  Input geometry:
  | No unit cell requested.
  | Atomic structure:
  |       Atom                x [A]            y [A]            z [A]
  |    1: Species Ca             0.000000         0.000000         0.000000
  |    2: Species O              3.558000        -5.787400        -0.706200
  |    3: Species C              3.676200        -5.191600        -1.810000
  |    4: Species O              4.908400        -5.201500        -2.458200
  |    5: Species C              2.484600        -4.521900        -2.440200
  |    6: Species N              1.762200        -3.730900        -1.441100
  |    7: Species C              1.568300        -5.565400        -3.089800
  |    8: Species H              5.034600        -4.754900        -3.358600
  |    9: Species H              2.844400        -3.833000        -3.236100
  |   10: Species H              1.281600        -4.371000        -0.766700
  |   11: Species H              1.017000        -3.180800        -1.927500
  |   12: Species H              1.187700        -6.282400        -2.330800
  |   13: Species H              0.703700        -5.063200        -3.573300
  |   14: Species H              2.125000        -6.128900        -3.869100
  |

  | The smallest distance between any two atoms is         1.01296503 AA.
  |
  | The first atom of this pair is atom number                      4 .
  | The second atom of this pair is atom number                     8 .

  Number of empty states per atom not set in control.in - providing a guess from actual geometry.
  | Total number of empty states used during s.c.f. cycle:       32
  If you use a very high smearing, use empty_states (per atom!) in control.in to increase this value.

  Structure-dependent array size parameters: 
  | Maximum number of distinct radial functions  :       38
  | Maximum number of basis functions            :      143
  | Number of Kohn-Sham states (occupied + empty):       66
------------------------------------------------------------

------------------------------------------------------------
          Preparing all fixed parts of the calculation.
------------------------------------------------------------
  Determining machine precision:
    2.225073858507201E-308
  Setting up grids for atomic and cluster calculations.

  Creating wave function, potential, and density for free atoms.

  Species: H

  List of occupied orbitals and eigenvalues:
    n    l              occ      energy [Ha]    energy [eV]
    1    0           1.0000        -0.235641        -6.4121


  Species: O

  List of occupied orbitals and eigenvalues:
    n    l              occ      energy [Ha]    energy [eV]
    1    0           2.0000       -18.925686      -514.9941
    2    0           2.0000        -0.879296       -23.9269
    2    1           4.0000        -0.330530        -8.9942


  Species: C

  List of occupied orbitals and eigenvalues:
    n    l              occ      energy [Ha]    energy [eV]
    1    0           2.0000       -10.041502      -273.2432
    2    0           2.0000        -0.499644       -13.5960
    2    1           2.0000        -0.187914        -5.1134


  Species: N

  List of occupied orbitals and eigenvalues:
    n    l              occ      energy [Ha]    energy [eV]
    1    0           2.0000       -14.141223      -384.8023
    2    0           2.0000        -0.680091       -18.5062
    2    1           3.0000        -0.257563        -7.0086


  Species: Na

  List of occupied orbitals and eigenvalues:
    n    l              occ      energy [Ha]    energy [eV]
    1    0           2.0000       -38.022277     -1034.6388
    2    0           2.0000        -2.069032       -56.3012
    3    0           1.0000        -0.087110        -2.3704
    2    1           6.0000        -1.037053       -28.2196


  Species: Ca

  List of occupied orbitals and eigenvalues:
    n    l              occ      energy [Ha]    energy [eV]
    1    0           2.0000      -145.816700     -3967.8743
    2    0           2.0000       -15.218532      -414.1173
    3    0           2.0000        -1.713477       -46.6261
    4    0           2.0000        -0.125254        -3.4083
    2    1           6.0000       -12.289096      -334.4033
    3    1           6.0000        -1.012303       -27.5462

  Creating fixed part of basis set: Ionic, confined, hydrogenic.
 
  H                    hydrogenic:
 
  List of hydrogenic basis orbitals: 
    n    l      effective z      eigenvalue [eV]  inner max. [A]     outer max. [A]     outer radius [A]   
    2    0         2.100000       -14.8927           0.193243           1.317208           4.105953
    2    1         3.500000       -41.6669           0.602369           0.602369           3.723403
 
 
  O                    hydrogenic:
 
  List of hydrogenic basis orbitals: 
    n    l      effective z      eigenvalue [eV]  inner max. [A]     outer max. [A]     outer radius [A]   
    2    1         1.800000       -10.8785           1.164242           1.164242           4.101052
    3    2         7.600000       -87.3180           0.624125           0.624125           3.251020
    3    0         6.400000       -61.9206           0.061167           1.081902           3.953371
 
 
  C                    hydrogenic:
 
  List of hydrogenic basis orbitals: 
    n    l      effective z      eigenvalue [eV]  inner max. [A]     outer max. [A]     outer radius [A]   
    2    1         1.700000        -9.6348           1.215618           1.215618           4.127827
    3    2         6.000000       -54.4223           0.792453           0.792453           3.835889
    2    0         4.900000       -81.6679           0.082559           0.562749           3.078220
 
 
  N                    hydrogenic:
 
  List of hydrogenic basis orbitals: 
    n    l      effective z      eigenvalue [eV]  inner max. [A]     outer max. [A]     outer radius [A]   
    2    1         1.800000       -10.8785           1.163144           1.163144           4.097185
    3    2         6.800000       -69.9026           0.704619           0.704619           3.538137
    3    0         5.800000       -50.8531           0.067388           1.191934           4.047402
 
 
  Na                   hydrogenic:
 
  List of hydrogenic basis orbitals: 
    n    l      effective z      eigenvalue [eV]  inner max. [A]     outer max. [A]     outer radius [A]   
    2    1         1.200000        -4.7043           1.699681           1.699681           5.107393
    3    0         1.800000        -2.7647           0.215330           3.132057           5.107393
    3    2         3.800000       -21.8265           1.252092           1.252092           5.045336
 
 
  Ca                   ion:

  List of free ionic orbitals and eigenvalues:
    n    l      energy [Ha]    energy [eV]
    1    0      -146.094633     -3975.4372
    2    0       -15.493962      -421.6121
    3    0        -1.984196       -53.9927
    4    0        -0.329457        -8.9650
    2    1       -12.564632      -341.9010
    3    1        -1.281792       -34.8793


  List of ionic basis orbitals and eigenvalues:
    n    l      energy [Ha]    energy [eV]    outer radius [A]
    3    2        -0.306329        -8.3356       5.051329
    4    1        -0.211138        -5.7453       5.113461
    4    0        -0.327939        -8.9237       5.051329

 
  Ca                   hydrogenic:
 
  List of hydrogenic basis orbitals: 
    n    l      effective z      eigenvalue [eV]  inner max. [A]     outer max. [A]     outer radius [A]   
    3    2         2.300000        -7.7550           1.994818           1.994818           5.113461
 

  Adding cutoff potential to free-atom effective potential.
  Creating atomic-like basis functions for current effective potential.

  Species H                   :

  List of atomic basis orbitals and eigenvalues:
    n    l      energy [Ha]    energy [eV]    outer radius [A]
    1    0        -0.235641        -6.4121       4.056063


  Species O                   :

  List of atomic basis orbitals and eigenvalues:
    n    l      energy [Ha]    energy [eV]    outer radius [A]
    1    0       -18.925686      -514.9941       1.415765
    2    0        -0.879296       -23.9269       3.953371
    2    1        -0.330530        -8.9942       4.051222


  Species C                   :

  List of atomic basis orbitals and eigenvalues:
    n    l      energy [Ha]    energy [eV]    outer radius [A]
    1    0       -10.041502      -273.2432       1.934409
    2    0        -0.499644       -13.5960       4.028125
    2    1        -0.187914        -5.1134       4.077671


  Species N                   :

  List of atomic basis orbitals and eigenvalues:
    n    l      energy [Ha]    energy [eV]    outer radius [A]
    1    0       -14.141223      -384.8023       1.637919
    2    0        -0.680091       -18.5062       3.998224
    2    1        -0.257563        -7.0086       4.047402


  Species Na                  :

  List of atomic basis orbitals and eigenvalues:
    n    l      energy [Ha]    energy [eV]    outer radius [A]
    1    0       -38.022277     -1034.6388       1.017136
    2    0        -2.069032       -56.3012       4.200021
    3    0        -0.087110        -2.3704       5.107393
    2    1        -1.037053       -28.2196       4.746176


  Species Ca                  :

  List of atomic basis orbitals and eigenvalues:
    n    l      energy [Ha]    energy [eV]    outer radius [A]
    1    0      -145.816700     -3967.8743       0.539280
    2    0       -15.218532      -414.1173       1.681024
    3    0        -1.713477       -46.6261       4.580699
    4    0        -0.125254        -3.4083       5.113461
    2    1       -12.289096      -334.4033       1.808961
    3    1        -1.012303       -27.5462       4.810262

  Assembling full basis from fixed parts.
  | Species H :   atomic orbital   1 s accepted.
  | Species H :    hydro orbital   2 s accepted.
  | Species H :    hydro orbital   2 p accepted.
  | Species O :   atomic orbital   1 s accepted.
  | Species O :   atomic orbital   2 s accepted.
  | Species O :    hydro orbital   3 s accepted.
  | Species O :   atomic orbital   2 p accepted.
  | Species O :    hydro orbital   2 p accepted.
  | Species O :    hydro orbital   3 d accepted.
  | Species C :   atomic orbital   1 s accepted.
  | Species C :    hydro orbital   2 s accepted.
  | Species C :   atomic orbital   2 s accepted.
  | Species C :   atomic orbital   2 p accepted.
  | Species C :    hydro orbital   2 p accepted.
  | Species C :    hydro orbital   3 d accepted.
  | Species N :   atomic orbital   1 s accepted.
  | Species N :   atomic orbital   2 s accepted.
  | Species N :    hydro orbital   3 s accepted.
  | Species N :   atomic orbital   2 p accepted.
  | Species N :    hydro orbital   2 p accepted.
  | Species N :    hydro orbital   3 d accepted.
  | Species Na :   atomic orbital   1 s accepted.
  | Species Na :   atomic orbital   2 s accepted.
  | Species Na :   atomic orbital   3 s accepted.
  | Species Na :    hydro orbital   3 s accepted.
  | Species Na :   atomic orbital   2 p accepted.
  | Species Na :    hydro orbital   2 p accepted.
  | Species Na :    hydro orbital   3 d accepted.
  | Species Ca :   atomic orbital   1 s accepted.
  | Species Ca :   atomic orbital   2 s accepted.
  | Species Ca :   atomic orbital   3 s accepted.
  | Species Ca :    ionic orbital   4 s accepted.
  | Species Ca :   atomic orbital   4 s accepted.
  | Species Ca :   atomic orbital   2 p accepted.
  | Species Ca :   atomic orbital   3 p accepted.
  | Species Ca :    ionic orbital   4 p accepted.
  | Species Ca :    ionic orbital   3 d accepted.
  | Species Ca :    hydro orbital   3 d accepted.
 
  Basis size parameters after reduction:
  | Total number of radial functions:       38
  | Total number of basis functions :      143
 
  Testing on-site integration grid accuracy.
  |  Species  Function  <phi|h_atom|phi> (log., in eV)  <phi|h_atom|phi> (rad., in eV)
           1        1                 -6.4162218543                 -6.4141874764
           1        2                 14.2629426856                 14.2740263446
           1        3                 25.3060316045                 25.3061745791
           2        4               -514.9941216383               -514.9940152912
           2        5                -23.9268789556                -23.9268670202
           2        6                 17.5370512221                 17.5371079820
           2        7                 -8.9948778850                 -8.9942897818
           2        8                  9.0934837212                  9.1359000456 ***
           2        9                 45.8654630780                 45.8654050057
           3       10               -273.2431604319               -273.2431304843
           3       11                -10.6127287579                -10.6123689972
           3       12                 17.6978683578                 17.7012113313
           3       13                 -5.1190123953                 -5.1138945774
           3       14                  9.8798729865                  9.9427570391 ***
           3       15                 27.5839636907                 27.5839723172
           4       16               -384.8022615505               -384.8022002159
           4       17                -18.5063031924                -18.5062262389
           4       18                 15.4149749124                 15.4157450175
           4       19                 -7.0105885112                 -7.0088509384
           4       20                  9.7201544818                  9.7672564673 ***
           4       21                 36.0101697918                 36.0103463654
           5       22              -1034.6388015345              -1034.6384291541
           5       23                -56.3012341042                -56.3012327590
           5       24                 -2.3917926930                 -2.3919758404
           5       25                  4.7971360279                  4.7797727319
           5       26                -28.2196408420                -28.2196407991
           5       27                  0.6522078092                  0.6519032012
           5       28                 10.4290155204                 10.4290902731
           6       29              -3967.8742986605              -3967.8711112323
           6       30               -414.1173184765               -414.1172913027
           6       31                -46.6260901861                -46.6260897515
           6       32                 -3.3009720869                 -3.3082195928
           6       33                  5.0462704491                  4.8938820551 ***
           6       34               -334.4033183962               -334.4033187644
           6       35                -27.5461560330                -27.5461560108
           6       36                 -0.6301050986                 -0.6564048653
           6       37                 -1.4261209312                 -1.4269666967
           6       38                  4.9481320968                  4.9020497815 ***
 * Note: Onsite integrals marked "***" above are less accurate than
 * onsite_accuracy_threshold =    0.03000 eV. Usually, this is harmless.
 * When in doubt, tighten the "radial" and/or "radial_multiplier" flags to check.

  Preparing densities etc. for the partition functions (integrals / Hartree potential).

  Preparations completed.
  max(cpu_time)          :      0.408 s.
  Wall clock time (cpu1) :      0.405 s.
------------------------------------------------------------

------------------------------------------------------------
          Begin self-consistency loop: Initialization.

          Date     :  20170702, Time     :  203428.288
------------------------------------------------------------

  Initializing index lists of integration centers etc. from given atomic structure:
  | Number of centers in hartree potential         :        14
  | Number of centers in hartree multipole         :        14
  | Number of centers in electron density summation:        14
  | Number of centers in basis integrals           :        14
  | Number of centers in integrals                 :        14
  | Number of centers in hamiltonian               :        14
  Initializing relaxation algorithms.
  Using modified Scalapack Eigenvalue solver (ELPA)
  * Using 64 tasks for Scalapack Eigenvalue solver.
  Detailed listing of tasks and assigned k-points:
  (for non-periodic systems, the "k-point" denotes an internal label only)
   Task     0 k-point     1 on eos337
   Task     1 k-point     1 on eos337
   Task     2 k-point     1 on eos337
   Task     3 k-point     1 on eos337
   Task     4 k-point     1 on eos337
   Task     5 k-point     1 on eos337
   Task     6 k-point     1 on eos337
   Task     7 k-point     1 on eos337
   Task     8 k-point     1 on eos337
   Task     9 k-point     1 on eos337
   Task    10 k-point     1 on eos337
   Task    11 k-point     1 on eos337
   Task    12 k-point     1 on eos337
   Task    13 k-point     1 on eos337
   Task    14 k-point     1 on eos337
   Task    15 k-point     1 on eos337
   Task    16 k-point     1 on eos337
   Task    17 k-point     1 on eos337
   Task    18 k-point     1 on eos337
   Task    19 k-point     1 on eos337
   Task    20 k-point     1 on eos337
   Task    21 k-point     1 on eos337
   Task    22 k-point     1 on eos337
   Task    23 k-point     1 on eos337
   Task    24 k-point     1 on eos337
   Task    25 k-point     1 on eos337
   Task    26 k-point     1 on eos337
   Task    27 k-point     1 on eos337
   Task    28 k-point     1 on eos337
   Task    29 k-point     1 on eos337
   Task    30 k-point     1 on eos337
   Task    31 k-point     1 on eos337
   Task    32 k-point     1 on eos068
   Task    33 k-point     1 on eos068
   Task    34 k-point     1 on eos068
   Task    35 k-point     1 on eos068
   Task    36 k-point     1 on eos068
   Task    37 k-point     1 on eos068
   Task    38 k-point     1 on eos068
   Task    39 k-point     1 on eos068
   Task    40 k-point     1 on eos068
   Task    41 k-point     1 on eos068
   Task    42 k-point     1 on eos068
   Task    43 k-point     1 on eos068
   Task    44 k-point     1 on eos068
   Task    45 k-point     1 on eos068
   Task    46 k-point     1 on eos068
   Task    47 k-point     1 on eos068
   Task    48 k-point     1 on eos068
   Task    49 k-point     1 on eos068
   Task    50 k-point     1 on eos068
   Task    51 k-point     1 on eos068
   Task    52 k-point     1 on eos068
   Task    53 k-point     1 on eos068
   Task    54 k-point     1 on eos068
   Task    55 k-point     1 on eos068
   Task    56 k-point     1 on eos068
   Task    57 k-point     1 on eos068
   Task    58 k-point     1 on eos068
   Task    59 k-point     1 on eos068
   Task    60 k-point     1 on eos068
   Task    61 k-point     1 on eos068
   Task    62 k-point     1 on eos068
   Task    63 k-point     1 on eos068
  Tasks:    64 split into      8 X      8 BLACS grid
  Calculating blocksize based on n_basis =          143  max_nprow =            8  max_npcol =            8
  Scalapack blocksize set to:           16
  Required Scalapack workspace - INTEGER:            1  REAL:             1
  Partitioning the integration grid into batches with parallel hashing+maxmin method.
  | Number of batches:      511
  | Maximal batch size:     197
  | Minimal batch size:       2
  | Average batch size:      93.198
  | Standard deviation of batch sizes:      32.248

  Integration load balanced across    64 MPI tasks.
  Work distribution over tasks is as follows:
  Task     0 has        801 integration points.
  Task     1 has        695 integration points.
  Task     2 has        697 integration points.
  Task     3 has        785 integration points.
  Task     4 has        697 integration points.
  Task     5 has        700 integration points.
  Task     6 has        796 integration points.
  Task     7 has        800 integration points.
  Task     8 has        806 integration points.
  Task     9 has        697 integration points.
  Task    10 has        659 integration points.
  Task    11 has        791 integration points.
  Task    12 has        697 integration points.
  Task    13 has        788 integration points.
  Task    14 has        735 integration points.
  Task    15 has        699 integration points.
  Task    16 has        789 integration points.
  Task    17 has        806 integration points.
  Task    18 has        809 integration points.
  Task    19 has        786 integration points.
  Task    20 has        691 integration points.
  Task    21 has        798 integration points.
  Task    22 has        799 integration points.
  Task    23 has        659 integration points.
  Task    24 has        690 integration points.
  Task    25 has        802 integration points.
  Task    26 has        693 integration points.
  Task    27 has        695 integration points.
  Task    28 has        809 integration points.
  Task    29 has        821 integration points.
  Task    30 has        806 integration points.
  Task    31 has        803 integration points.
  Task    32 has        727 integration points.
  Task    33 has        686 integration points.
  Task    34 has        683 integration points.
  Task    35 has        690 integration points.
  Task    36 has        753 integration points.
  Task    37 has        815 integration points.
  Task    38 has        726 integration points.
  Task    39 has        783 integration points.
  Task    40 has        665 integration points.
  Task    41 has        786 integration points.
  Task    42 has        661 integration points.
  Task    43 has        677 integration points.
  Task    44 has        664 integration points.
  Task    45 has        804 integration points.
  Task    46 has        663 integration points.
  Task    47 has        815 integration points.
  Task    48 has        808 integration points.
  Task    49 has        811 integration points.
  Task    50 has        788 integration points.
  Task    51 has        657 integration points.
  Task    52 has        740 integration points.
  Task    53 has        671 integration points.
  Task    54 has        801 integration points.
  Task    55 has        695 integration points.
  Task    56 has        667 integration points.
  Task    57 has        810 integration points.
  Task    58 has        670 integration points.
  Task    59 has        722 integration points.
  Task    60 has        792 integration points.
  Task    61 has        794 integration points.
  Task    62 has        808 integration points.
  Task    63 has        693 integration points.
  Initializing partition tables, free-atom densities, potentials, etc. across the integration grid (initialize_grid_storage).
  | initialize_grid_storage: Actual outermost partition radius vs. multipole_radius_free
  | (-- VB: in principle, multipole_radius_free should be larger, hence this output)
  | Species        1: Confinement radius =              4.500000000000000 AA, multipole_radius_free =              4.527807254260598 AA.
  | Species        1: outer_partition_radius set to              4.527807254260598 AA .
  | Species        2: Confinement radius =              4.500000000000000 AA, multipole_radius_free =              4.522403050824455 AA.
  | Species        2: outer_partition_radius set to              4.522403050824455 AA .
  | Species        3: Confinement radius =              4.500000000000000 AA, multipole_radius_free =              4.551928288069453 AA.
  | Species        3: outer_partition_radius set to              4.551928288069453 AA .
  | Species        4: Confinement radius =              4.500000000000000 AA, multipole_radius_free =              4.518138488740626 AA.
  | Species        4: outer_partition_radius set to              4.518138488740626 AA .
  | Species        5: Confinement radius =              5.500000000000000 AA, multipole_radius_free =              5.563704032673898 AA.
  | Species        5: outer_partition_radius set to              5.563704032673898 AA .
  | Species        6: Confinement radius =              5.500000000000000 AA, multipole_radius_free =              5.502630814892452 AA.
  | Species        6: outer_partition_radius set to              5.502630814892452 AA .
  | Original list of interatomic distances with          14 x         14 entries is created.
  | Net number of integration points:    47624
  | of which are non-zero points    :    42843
  Obtaining max. number of non-zero basis functions in each batch (get_n_compute_maxes).
  | Maximal number of non-zero basis functions:      133 in task     0
  | Maximal number of non-zero basis functions:      127 in task     1
  | Maximal number of non-zero basis functions:      125 in task     2
  | Maximal number of non-zero basis functions:      117 in task     3
  | Maximal number of non-zero basis functions:      123 in task     4
  | Maximal number of non-zero basis functions:      136 in task     5
  | Maximal number of non-zero basis functions:      136 in task     6
  | Maximal number of non-zero basis functions:      135 in task     7
  | Maximal number of non-zero basis functions:      137 in task     8
  | Maximal number of non-zero basis functions:      130 in task     9
  | Maximal number of non-zero basis functions:      125 in task    10
  | Maximal number of non-zero basis functions:      124 in task    11
  | Maximal number of non-zero basis functions:      127 in task    12
  | Maximal number of non-zero basis functions:      124 in task    13
  | Maximal number of non-zero basis functions:      126 in task    14
  | Maximal number of non-zero basis functions:      117 in task    15
  | Maximal number of non-zero basis functions:      128 in task    16
  | Maximal number of non-zero basis functions:      136 in task    17
  | Maximal number of non-zero basis functions:      136 in task    18
  | Maximal number of non-zero basis functions:      124 in task    19
  | Maximal number of non-zero basis functions:      125 in task    20
  | Maximal number of non-zero basis functions:      127 in task    21
  | Maximal number of non-zero basis functions:      135 in task    22
  | Maximal number of non-zero basis functions:      130 in task    23
  | Maximal number of non-zero basis functions:      127 in task    24
  | Maximal number of non-zero basis functions:      135 in task    25
  | Maximal number of non-zero basis functions:      132 in task    26
  | Maximal number of non-zero basis functions:      135 in task    27
  | Maximal number of non-zero basis functions:      135 in task    28
  | Maximal number of non-zero basis functions:      135 in task    29
  | Maximal number of non-zero basis functions:      129 in task    30
  | Maximal number of non-zero basis functions:      136 in task    31
  | Maximal number of non-zero basis functions:      136 in task    32
  | Maximal number of non-zero basis functions:      136 in task    33
  | Maximal number of non-zero basis functions:      118 in task    34
  | Maximal number of non-zero basis functions:      136 in task    35
  | Maximal number of non-zero basis functions:      136 in task    36
  | Maximal number of non-zero basis functions:      129 in task    37
  | Maximal number of non-zero basis functions:      135 in task    38
  | Maximal number of non-zero basis functions:      135 in task    39
  | Maximal number of non-zero basis functions:      126 in task    40
  | Maximal number of non-zero basis functions:      136 in task    41
  | Maximal number of non-zero basis functions:      127 in task    42
  | Maximal number of non-zero basis functions:      118 in task    43
  | Maximal number of non-zero basis functions:      126 in task    44
  | Maximal number of non-zero basis functions:      136 in task    45
  | Maximal number of non-zero basis functions:      120 in task    46
  | Maximal number of non-zero basis functions:      136 in task    47
  | Maximal number of non-zero basis functions:      124 in task    48
  | Maximal number of non-zero basis functions:      132 in task    49
  | Maximal number of non-zero basis functions:      123 in task    50
  | Maximal number of non-zero basis functions:      136 in task    51
  | Maximal number of non-zero basis functions:      135 in task    52
  | Maximal number of non-zero basis functions:      135 in task    53
  | Maximal number of non-zero basis functions:      135 in task    54
  | Maximal number of non-zero basis functions:      127 in task    55
  | Maximal number of non-zero basis functions:      127 in task    56
  | Maximal number of non-zero basis functions:      126 in task    57
  | Maximal number of non-zero basis functions:      122 in task    58
  | Maximal number of non-zero basis functions:      136 in task    59
  | Maximal number of non-zero basis functions:      129 in task    60
  | Maximal number of non-zero basis functions:      124 in task    61
  | Maximal number of non-zero basis functions:      129 in task    62
  | Maximal number of non-zero basis functions:      135 in task    63
  Selecting the method for density update.
  Loop over occupied states selected for charge density update.
  Integrating Hamiltonian matrix: batch-based integration.
  Time summed over all CPUs for integration: real work        0.555 s, elapsed        0.720 s
  Integrating overlap matrix.
  Time summed over all CPUs for integration: real work        0.211 s, elapsed        0.301 s
  Deallocating overlap matrix.

  Updating Kohn-Sham eigenvalues, eigenvectors, occupation numbers, and Fermi level.
  Solving generalized eigenproblem
  Solving real symmetric generalised eigenvalue problem by standard ScaLAPACK.
  Transforming overlap matrix with ScaLAPACK and checking for singularities.
  : Overlap matrix is nonsingular, using Cholesky decomposition
  | Lowest eigenvalue:  0.468384E-02
  Factoring overlap matrix with Cholesky decomposition
  Using Cholesky factor for transformation
  Using 1-stage real ELPA solver
  Determining occupation numbers for Kohn-Sham eigenstates.
  | Chemical potential (Fermi level) in eV                 : -.43488579E+01
  | Error in electron count due to remaining E_F inaccuracy: -.39877506E-08
  | Maximum occupation number of highest empty state:  0.00E+00

  Writing Kohn-Sham eigenvalues.

  State    Occupation    Eigenvalue [Ha]    Eigenvalue [eV]
      1       2.00000        -145.816699        -3967.87427
      2       2.00000         -19.006235         -517.18597
      3       2.00000         -18.987562         -516.67784
      4       2.00000         -15.218532         -414.11733
      5       2.00000         -14.248426         -387.71939
      6       2.00000         -12.289096         -334.40333
      7       2.00000         -12.289096         -334.40333
      8       2.00000         -12.289096         -334.40333
      9       2.00000         -10.157721         -276.40566
     10       2.00000         -10.140722         -275.94308
     11       2.00000         -10.114398         -275.22678
     12       2.00000          -1.713471          -46.62592
     13       2.00000          -1.114318          -30.32214
     14       2.00000          -1.054002          -28.68085
     15       2.00000          -1.012300          -27.54608
     16       2.00000          -1.012297          -27.54601
     17       2.00000          -1.012296          -27.54596
     18       2.00000          -0.983918          -26.77378
     19       2.00000          -0.844861          -22.98983
     20       2.00000          -0.745266          -20.27972
     21       2.00000          -0.666514          -18.13676
     22       2.00000          -0.625304          -17.01539
     23       2.00000          -0.580188          -15.78771
     24       2.00000          -0.558467          -15.19665
     25       2.00000          -0.548638          -14.92919
     26       2.00000          -0.530357          -14.43174
     27       2.00000          -0.511005          -13.90516
     28       2.00000          -0.479905          -13.05887
     29       2.00000          -0.468379          -12.74524
     30       2.00000          -0.454620          -12.37085
     31       2.00000          -0.408860          -11.12565
     32       2.00000          -0.393122          -10.69739
     33       2.00000          -0.380058          -10.34191
     34       1.00000          -0.159818           -4.34886
     35       0.00000          -0.128737           -3.50310
     36       0.00000          -0.065903           -1.79331
     37       0.00000          -0.056962           -1.55002
     38       0.00000          -0.056450           -1.53610
     39       0.00000          -0.056257           -1.53084
     40       0.00000          -0.056240           -1.53038
     41       0.00000          -0.054268           -1.47670
     42       0.00000          -0.045875           -1.24832
     43       0.00000          -0.026981           -0.73419
     44       0.00000          -0.025313           -0.68881
     45       0.00000          -0.019610           -0.53362
     46       0.00000          -0.009892           -0.26917
     47       0.00000           0.006882            0.18726
     48       0.00000           0.018453            0.50214
     49       0.00000           0.026642            0.72498
     50       0.00000           0.046448            1.26391
     51       0.00000           0.053834            1.46490
     52       0.00000           0.062400            1.69799
     53       0.00000           0.083071            2.26048
     54       0.00000           0.158374            4.30958
     55       0.00000           0.167364            4.55421
     56       0.00000           0.177860            4.83981
     57       0.00000           0.181068            4.92711
     58       0.00000           0.181491            4.93861
     59       0.00000           0.182226            4.95863
     60       0.00000           0.184013            5.00725
     61       0.00000           0.206151            5.60965
     62       0.00000           0.250433            6.81464
     63       0.00000           0.257020            6.99388
     64       0.00000           0.263282            7.16428
     65       0.00000           0.282537            7.68823
     66       0.00000           0.305001            8.29951

  Highest occupied state (VBM) at    -10.34191232 eV
  | Occupation number:      2.00000000

  Lowest unoccupied state (CBM) at    -4.34885786 eV
  | Occupation number:      1.00000000

  Overall HOMO-LUMO gap:      5.99305446 eV.
  Calculating total energy contributions from superposition of free atom densities.

  Total energy components:
  | Sum of eigenvalues            :        -593.47127758 Ha      -16149.17512384 eV
  | XC energy correction          :         -77.80416716 Ha       -2117.15910841 eV
  | XC potential correction       :         100.32133408 Ha        2729.88239520 eV
  | Free-atom electrostatic energy:        -434.88602036 Ha      -11833.85071361 eV
  | Hartree energy correction     :           0.00000000 Ha           0.00000000 eV
  | vdW energy correction         :           0.00000000 Ha           0.00000000 eV
  | Entropy correction            :          -0.00010367 Ha          -0.00282095 eV
  | ---------------------------
  | Total energy                  :       -1005.84013102 Ha      -27370.30255066 eV
  | Total energy, T -> 0          :       -1005.84023469 Ha      -27370.30537160 eV  <-- do not rely on this value for anything but (periodic) metals
  | Electronic free energy        :       -1005.84033835 Ha      -27370.30819255 eV

  Derived energy quantities:
  | Kinetic energy                :        1007.72340060 Ha       27421.54892333 eV
  | Electrostatic energy          :       -1935.75936445 Ha      -52674.69236558 eV
  | Energy correction for multipole
  | error in Hartree potential    :           0.00000000 Ha           0.00000000 eV
  | Sum of eigenvalues per atom                           :       -1153.51250885 eV
  | Total energy (T->0) per atom                          :       -1955.02181226 eV  <-- do not rely on this value for anything but (periodic) metals
  | Electronic free energy per atom                       :       -1955.02201375 eV
  Initialize hartree_potential_storage
  Max. number of atoms included in rho_multipole:           14

  End scf initialization - timings             :  max(cpu_time)    wall_clock(cpu1)
  | Time for scf. initialization               :        0.172 s           0.170 s
  | Boundary condition initialization          :        0.004 s           0.000 s
  | Relaxation initialization                  :        0.004 s           0.002 s
  | Integration                                :        0.020 s           0.018 s
  | Solution of K.-S. eqns.                    :        0.108 s           0.108 s
  | Grid partitioning                          :        0.024 s           0.022 s
  | Preloading free-atom quantities on grid    :        0.008 s           0.003 s
  | Free-atom superposition energy             :        0.004 s           0.002 s
  | Total energy evaluation                    :        0.004 s           0.001 s
------------------------------------------------------------

------------------------------------------------------------
          Begin self-consistency iteration #    1

  Date     :  20170702, Time     :  203428.459
------------------------------------------------------------
  Evaluating new KS density.
  Integration grid: deviation in total charge (<rho> - N_e) =  -3.987765E-09
  Pulay mixing of updated and previous charge densities.

  Evaluating partitioned Hartree potential by multipole expansion.
  | Analytical far-field extrapolation by fixed multipoles:
  | Hartree multipole sum: apparent total charge =   0.199002E+00
  Summing up the Hartree potential.
  Time summed over all CPUs for potential: real work        0.506 s, elapsed        0.551 s
  | RMS charge density error from multipole expansion :   0.767853E-02

  Integrating Hamiltonian matrix: batch-based integration.
  Time summed over all CPUs for integration: real work        0.364 s, elapsed        0.446 s

  Updating Kohn-Sham eigenvalues, eigenvectors, occupation numbers, and Fermi level.
  Solving generalized eigenproblem
  Solving real symmetric generalised eigenvalue problem by standard ScaLAPACK.
  Using Cholesky factor for transformation
  Using 1-stage real ELPA solver
  Determining occupation numbers for Kohn-Sham eigenstates.
  | Chemical potential (Fermi level) in eV                 : -.53181123E+01
  | Error in electron count due to remaining E_F inaccuracy: 0.30739500E-09
  | Maximum occupation number of highest empty state:  0.00E+00

  Writing Kohn-Sham eigenvalues.

  State    Occupation    Eigenvalue [Ha]    Eigenvalue [eV]
      1       2.00000        -145.930754        -3970.97785
      2       2.00000         -18.863739         -513.30847
      3       2.00000         -18.781265         -511.06421
      4       2.00000         -15.329064         -417.12504
      5       2.00000         -14.104627         -383.80644
      6       2.00000         -12.400008         -337.42139
      7       2.00000         -12.400002         -337.42123
      8       2.00000         -12.399992         -337.42095
      9       2.00000         -10.039656         -273.19293
     10       2.00000         -10.018064         -272.60540
     11       2.00000         -10.017149         -272.58048
     12       2.00000          -1.816802          -49.43770
     13       2.00000          -1.114640          -30.33089
     14       2.00000          -1.114576          -30.32914
     15       2.00000          -1.114415          -30.32476
     16       2.00000          -1.017578          -27.68970
     17       2.00000          -0.949357          -25.83331
     18       2.00000          -0.910396          -24.77315
     19       2.00000          -0.772292          -21.01514
     20       2.00000          -0.674631          -18.35765
     21       2.00000          -0.591462          -16.09449
     22       2.00000          -0.559935          -15.23660
     23       2.00000          -0.512224          -13.93831
     24       2.00000          -0.483271          -13.15048
     25       2.00000          -0.473594          -12.88715
     26       2.00000          -0.447326          -12.17236
     27       2.00000          -0.436728          -11.88398
     28       2.00000          -0.404444          -11.00548
     29       2.00000          -0.387010          -10.53108
     30       2.00000          -0.370077          -10.07031
     31       2.00000          -0.313550           -8.53214
     32       2.00000          -0.304742           -8.29244
     33       2.00000          -0.273390           -7.43931
     34       1.00000          -0.195437           -5.31811
     35       0.00000          -0.147598           -4.01634
     36       0.00000          -0.147142           -4.00394
     37       0.00000          -0.146988           -3.99973
     38       0.00000          -0.146760           -3.99356
     39       0.00000          -0.146529           -3.98726
[...]
  ----------------------------------------------------------------------


  Total energy components:
  | Sum of eigenvalues            :        -595.82530928 Ha      -16213.23158567 eV
  | XC energy correction          :         -78.46301411 Ha       -2135.08724594 eV
  | XC potential correction       :         101.17221617 Ha        2753.03607492 eV
  | Free-atom electrostatic energy:        -434.49797460 Ha      -11823.29145127 eV
  | Hartree energy correction     :           2.12426340 Ha          57.80414825 eV
  | vdW energy correction         :          -0.00411422 Ha          -0.11195355 eV
  | Entropy correction            :          -0.00010367 Ha          -0.00282095 eV
  | ---------------------------
  | Total energy                  :       -1005.49393263 Ha      -27360.88201324 eV
  | Total energy, T -> 0          :       -1005.49403630 Ha      -27360.88483419 eV  <-- do not rely on this value for anything but (periodic) metals
  | Electronic free energy        :       -1005.49413997 Ha      -27360.88765514 eV

  Derived energy quantities:
  | Kinetic energy                :        1009.18029127 Ha       27461.19293568 eV
  | Electrostatic energy          :       -1936.20709558 Ha      -52686.87574943 eV
  | Energy correction for multipole
  | error in Hartree potential    :           0.08660087 Ha           2.35652962 eV
  | Sum of eigenvalues per atom                           :       -1158.08797040 eV
  | Total energy (T->0) per atom                          :       -1954.34891673 eV  <-- do not rely on this value for anything but (periodic) metals
  | Electronic free energy per atom                       :       -1954.34911822 eV

  atomic forces [eV/Ang]:
  -----------------------
  atom #    1
   Hellmann-Feynman              : -0.818590E+00  0.961479E+00  0.370202E+00
   Ionic forces                  :  0.000000E+00  0.000000E+00  0.000000E+00
   Multipole                     :  0.134656E-01 -0.580360E-01 -0.214475E-01
   Pulay + GGA                   :  0.949124E+00 -0.118386E+01 -0.488766E+00
   Van der Waals                 :  0.766058E-02 -0.214485E-01 -0.929394E-02
   ----------------------------------------------------------------
   Total forces(   1)            :  0.151660E+00 -0.301861E+00 -0.149305E+00
  atom #    2
   Hellmann-Feynman              : -0.197107E+01  0.126317E+01  0.116054E+02
   Ionic forces                  :  0.000000E+00  0.000000E+00  0.000000E+00
   Multipole                     : -0.193862E+00  0.831211E-01  0.267743E+01
   Pulay + GGA                   :  0.215130E+01 -0.132098E+01 -0.142671E+02
   Van der Waals                 : -0.236176E-02 -0.269277E-02 -0.556195E-02
   ----------------------------------------------------------------
   Total forces(   2)            : -0.159882E-01  0.226245E-01  0.101962E-01
  atom #    3
   Hellmann-Feynman              : -0.449874E+01  0.998936E+00 -0.839403E+00
   Ionic forces                  :  0.000000E+00  0.000000E+00  0.000000E+00
   Multipole                     :  0.483713E+00 -0.133982E+00  0.349899E+00
   Pulay + GGA                   :  0.399649E+01 -0.848282E+00  0.488220E+00
   Van der Waals                 :  0.361921E-02  0.875734E-02  0.667551E-02
   ----------------------------------------------------------------
   Total forces(   3)            : -0.149147E-01  0.254283E-01  0.539220E-02
  atom #    4
   Hellmann-Feynman              :  0.112956E+02 -0.243677E+01  0.870691E+01
   Ionic forces                  :  0.000000E+00  0.000000E+00  0.000000E+00
   Multipole                     :  0.109136E+01 -0.263600E+00 -0.113110E+00
   Pulay + GGA                   : -0.124061E+02  0.272442E+01 -0.860062E+01
   Van der Waals                 :  0.716410E-02  0.166850E-02  0.917853E-02
   ----------------------------------------------------------------
   Total forces(   4)            : -0.119834E-01  0.257168E-01  0.236138E-02
  atom #    5
   Hellmann-Feynman              :  0.228152E+01 -0.112125E+01 -0.113376E+01
   Ionic forces                  :  0.000000E+00  0.000000E+00  0.000000E+00
   Multipole                     : -0.369047E+00  0.371631E+00 -0.249826E+00
   Pulay + GGA                   : -0.192109E+01  0.762759E+00  0.139126E+01
   Van der Waals                 : -0.449210E-02  0.505606E-02  0.797470E-03
   ----------------------------------------------------------------
   Total forces(   5)            : -0.131118E-01  0.181972E-01  0.847199E-02
  atom #    6
   Hellmann-Feynman              :  0.319142E+00  0.102349E+02  0.804511E+00
   Ionic forces                  :  0.000000E+00  0.000000E+00  0.000000E+00
   Multipole                     : -0.220786E+00  0.226208E+00  0.263162E+00
   Pulay + GGA                   : -0.112181E+00 -0.104601E+02 -0.106901E+01
   Van der Waals                 : -0.106340E-02  0.185095E-01  0.723155E-02
   ----------------------------------------------------------------
   Total forces(   6)            : -0.148878E-01  0.195409E-01  0.589744E-02
  atom #    7
   Hellmann-Feynman              : -0.140529E+00 -0.131486E+00 -0.423454E-02
   Ionic forces                  :  0.000000E+00  0.000000E+00  0.000000E+00
   Multipole                     : -0.397201E-02 -0.456263E+00 -0.420351E-01
   Pulay + GGA                   :  0.146238E+00  0.619618E+00  0.660855E-01
   Van der Waals                 : -0.126507E-01 -0.133852E-01 -0.124742E-01
   ----------------------------------------------------------------
   Total forces(   7)            : -0.109142E-01  0.184828E-01  0.734167E-02
  atom #    8
   Hellmann-Feynman              : -0.729825E-01  0.330057E-01 -0.304630E+00
   Ionic forces                  :  0.000000E+00  0.000000E+00  0.000000E+00
   Multipole                     : -0.231226E-01 -0.918639E-02 -0.105232E+00
   Pulay + GGA                   :  0.736993E-01 -0.255229E-03  0.414745E+00
   Van der Waals                 :  0.110220E-01  0.121678E-02  0.301719E-02
   ----------------------------------------------------------------
   Total forces(   8)            : -0.113837E-01  0.247808E-01  0.789980E-02
  atom #    9
   Hellmann-Feynman              : -0.249734E-01 -0.120220E+00  0.105993E+00
   Ionic forces                  :  0.000000E+00  0.000000E+00  0.000000E+00
   Multipole                     :  0.984918E-01  0.171767E+00 -0.183156E+00
   Pulay + GGA                   : -0.850075E-01 -0.448969E-01  0.826280E-01
   Van der Waals                 : -0.181316E-02  0.126177E-01  0.343234E-03
   ----------------------------------------------------------------
   Total forces(   9)            : -0.133023E-01  0.192678E-01  0.580883E-02
  atom #   10
   Hellmann-Feynman              : -0.197014E+00 -0.944182E-01  0.279871E-01
   Ionic forces                  :  0.000000E+00  0.000000E+00  0.000000E+00
   Multipole                     :  0.945105E-01 -0.524070E-02  0.124042E+00
   Pulay + GGA                   :  0.923293E-01  0.114853E+00 -0.150867E+00
   Van der Waals                 : -0.160596E-02  0.617005E-02  0.284005E-02
   ----------------------------------------------------------------
   Total forces(  10)            : -0.117801E-01  0.213643E-01  0.400220E-02
  atom #   11
   Hellmann-Feynman              : -0.843732E-01 -0.877367E-01  0.515405E-01
   Ionic forces                  :  0.000000E+00  0.000000E+00  0.000000E+00
   Multipole                     : -0.118823E+00 -0.101561E-02 -0.117255E+00
   Pulay + GGA                   :  0.191571E+00  0.101390E+00  0.625456E-01
   Van der Waals                 : -0.205193E-02  0.613138E-02  0.928451E-02
   ----------------------------------------------------------------
   Total forces(  11)            : -0.136764E-01  0.187687E-01  0.611573E-02
  atom #   12
   Hellmann-Feynman              :  0.499943E-02  0.112963E+00 -0.100530E+00
   Ionic forces                  :  0.000000E+00  0.000000E+00  0.000000E+00
   Multipole                     : -0.469017E-01 -0.125088E+00  0.184430E+00
   Pulay + GGA                   :  0.278418E-01  0.374275E-01 -0.754872E-01
   Van der Waals                 :  0.376512E-02 -0.460925E-02 -0.111658E-02
   ----------------------------------------------------------------
   Total forces(  12)            : -0.102953E-01  0.206941E-01  0.729575E-02
  atom #   13
   Hellmann-Feynman              :  0.712392E-01  0.175078E-01  0.128225E+00
   Ionic forces                  :  0.000000E+00  0.000000E+00  0.000000E+00
   Multipole                     : -0.171218E+00  0.749505E-01 -0.142795E+00
   Pulay + GGA                   :  0.866176E-01 -0.652876E-01  0.270671E-01
   Van der Waals                 :  0.229997E-02 -0.880625E-02 -0.444648E-02
   ----------------------------------------------------------------
   Total forces(  13)            : -0.110612E-01  0.183645E-01  0.805099E-02
  atom #   14
   Hellmann-Feynman              : -0.847564E-01  0.126539E+00  0.105824E+00
   Ionic forces                  :  0.000000E+00  0.000000E+00  0.000000E+00
   Multipole                     :  0.212125E+00 -0.542262E-01 -0.116662E+00
   Pulay + GGA                   : -0.130033E+00 -0.413802E-01  0.276029E-01
   Van der Waals                 : -0.949202E-02 -0.918538E-02 -0.647494E-02
   ----------------------------------------------------------------
   Total forces(  14)            : -0.121567E-01  0.217471E-01  0.102895E-01

  Timings for VdW correction (Tkatchenko-Scheffler 2009 or later):
  | CPU time:        0.008 s, Wall clock time:        0.008 s.
  Removing unitary transformations (pure translations, rotations) from forces on atoms.
  Atomic forces before filtering:
  | Net force on center of mass :  -0.137954E-01 -0.268838E-01 -0.601815E-01 eV/A
  | Net torque on center of mass:   0.684620E-02  0.238601E-01  0.567623E-02 eV
  Atomic forces after filtering:
  | Net force on center of mass :  -0.152476E+00  0.299424E+00  0.146196E+00 eV/A
  | Net torque on center of mass:  -0.201528E-01 -0.300251E-01  0.404758E-01 eV

  Energy and forces in a compact form:
  | Total energy uncorrected      :         -0.273608820132445E+05 eV
  | Total energy corrected        :         -0.273608848341924E+05 eV  <-- do not rely on this value for anything but (periodic) metals
  | Electronic free energy        :         -0.273608876551402E+05 eV
  Total atomic forces (unitary forces were cleaned, then relaxation constraints were applied) [eV/Ang]:
  |   1          0.000000000000000E+00          0.000000000000000E+00          0.000000000000000E+00
  |   2         -0.161623122925586E-01          0.241877814571825E-01          0.151684503771233E-01
  |   3         -0.143677290304863E-01          0.269914132280416E-01          0.104479346341104E-01
  |   4         -0.112020754234627E-01          0.269674289076107E-01          0.815080257421650E-02
  |   5         -0.118923575027611E-01          0.201073846721221E-01          0.128204574163510E-01
  |   6         -0.139597688747638E-01          0.217286653965575E-01          0.958466807144494E-02
  |   7         -0.965190648269005E-02          0.205212472486517E-01          0.114049287053806E-01
  |   8         -0.100092766706790E-01          0.260742632606772E-01          0.136608947754972E-01
  |   9         -0.114076201634028E-01          0.211073485026202E-01          0.103948929199922E-01
  |  10         -0.115453964739466E-01          0.235034259577741E-01          0.771943283314149E-02
  |  11         -0.125957266533189E-01          0.212125927404755E-01          0.924116197267903E-02
  |  12         -0.970360196852559E-02          0.227890796040911E-01          0.111538797218529E-01
  |  13         -0.932925942994419E-02          0.206542527421525E-01          0.116000819869984E-01
  |  14         -0.106490875390193E-01          0.235788249670698E-01          0.148486666155006E-01

  ------------------------------------ 
  Start decomposition of the XC Energy 
  ------------------------------------ 
  Hartree-Fock part   :          0.000000000 Ha              0.000000000 eV
  ------------------------------------ 
  X Energy            :        -76.115258323 Ha          -2071.201560550 eV
  C Energy GGA        :         -2.347755786 Ha            -63.885685393 eV
  Total XC Energy     :        -78.463014109 Ha          -2135.087245943 eV
  LDA X and C from self-consistent density 
  X Energy LDA        :        -69.884438185 Ha          -1901.652318025 eV
  C Energy LDA        :         -4.681331635 Ha           -127.385515086 eV
  ------------------------------------ 
  End decomposition of the XC Energy 
  ------------------------------------ 
  Relaxation / MD: End force evaluation.       :  max(cpu_time)    wall_clock(cpu1)
  | Time for this force evaluation             :        0.308 s           0.348 s

------------------------------------------------------------
  Geometry optimization: Attempting to predict improved coordinates.

  Removing unitary transformations (pure translations, rotations) from forces on atoms.
  Atomic forces before filtering:
  | Net force on center of mass :  -0.152476E+00  0.299424E+00  0.146196E+00 eV/A
  | Net torque on center of mass:  -0.201528E-01 -0.300251E-01  0.404758E-01 eV
  Atomic forces after filtering:
  | Net force on center of mass :  -0.144642E-01  0.208787E-01  0.805147E-02 eV/A
  | Net torque on center of mass:  -0.110360E-01 -0.153759E-01  0.200462E-01 eV
  Net remaining forces (excluding translations, rotations) in present geometry:
  Maximum force component is  0.467475E-02 eV/A.
  Present geometry is converged.

------------------------------------------------------------
  Final atomic structure:
                         x [A]             y [A]             z [A]
            atom         0.00000000        0.00000000        0.00000000  Ca
            atom         3.24461587       -4.52356017       -0.39909558  O
            atom         3.38387969       -4.60646784       -1.60209779  C
            atom         4.58758182       -4.93953963       -2.12849641  O
            atom         2.22832725       -4.37996411       -2.58967812  C
            atom         1.12624483       -3.74138648       -1.83606933  N
            atom         1.83528294       -5.71933843       -3.25136303  C
            atom         4.54367947       -4.97704206       -3.10449635  H
            atom         2.57717562       -3.68424860       -3.37419745  H
            atom         1.19358961       -4.11050107       -0.87776596  H
            atom         0.23373117       -4.05903323       -2.22327381  H
            atom         1.54126739       -6.46072686       -2.49447033  H
            atom         0.99609295       -5.57153846       -3.94565158  H
            atom         2.65951808       -6.15179099       -3.83936957  H
------------------------------------------------------------

------------------------------------------------------------------------------
  Final output of selected total energy values:

  The following output summarizes some interesting total energy values
  at the end of a run (AFTER all relaxation, molecular dynamics, etc.).

  | Total energy of the DFT / Hartree-Fock s.c.f. calculation      :         -27360.882013245 eV
  | Final zero-broadening corrected energy (caution - metals only) :         -27360.884834192 eV
  | For reference only, the value of 1 Hartree used in FHI-aims is :             27.211384500 eV

  Before relying on these values, please be sure to understand exactly which
  total energy value is referred to by a given number. Different objects may
  all carry the same name 'total energy'. Definitions:

  Total energy of the DFT / Hartree-Fock s.c.f. calculation:
  | Note that this energy does not include ANY quantities calculated after the
  | s.c.f. cycle, in particular not ANY RPA, MP2, etc. many-body perturbation terms.

  Final zero-broadening corrected energy:
  | For metallic systems only, a broadening of the occupation numbers at the Fermi
  | level can be extrapolated back to zero broadening by an electron-gas inspired
  | formula. For all systems that are not real metals, this value can be
  | meaningless and should be avoided.

------------------------------------------------------------------------------
  Methods described in the following list of references were used in this FHI-aims run.
  If you publish the results, please make sure to cite these reference if they apply.
  FHI-aims is an academic code, and for our developers (often, Ph.D. students
  and postdocs), scientific credit in the community is essential.
  Thank you for helping us!

  For any use of FHI-aims, please cite:

    Volker Blum, Ralf Gehrke, Felix Hanke, Paula Havu, Ville Havu,
    Xinguo Ren, Karsten Reuter, and Matthias Scheffler
    'Ab initio molecular simulations with numeric atom-centered orbitals'
    Computer Physics Communications 180, 2175-2196 (2009)
    http://dx.doi.org/10.1016/j.cpc.2009.06.022


  The scalable eigensolver library ELPA was used in your run.
  ELPA is essential especially for large systems on hundreds or thousands of CPUs.
  For ELPA, please cite:

    Andreas Marek, Volker Blum, Rainer Johanni, Ville Havu, Bruno Lang,
    Thomas Auckenthaler, Alexander Heinecke, Hans-Joachim Bungartz, and Hermann Lederer,
    'The ELPA Library - Scalable Parallel Eigenvalue Solutions
    for Electronic Structure Theory and Computational Science'
    The Journal of Physics: Condensed Matter 26, 213201 (2014).
    http://dx.doi.org/10.1088/0953-8984/26/21/213201


  For the real-space grid partitioning and parallelization used in this calculation, please cite:

    Ville Havu, Volker Blum, Paula Havu, and Matthias Scheffler,
    'Efficient O(N) integration for all-electron electronic structure calculation'
    'using numerically tabulated basis functions'
    Journal of Computational Physics 228, 8367-8379 (2009).
    http://dx.doi.org/10.1016/j.jcp.2009.08.008

  Of course, there are many other important community references, e.g., those cited in the
  above references. Our list is limited to references that describe implementations in the
  FHI-aims code. The reason is purely practical (length of this list) - please credit others as well.

------------------------------------------------------------
          Leaving FHI-aims.
          Date     :  20170702, Time     :  203445.518

          Computational steps:
          | Number of self-consistency cycles          :          341
          | Number of relaxation steps                 :           38

          Detailed time accounting                     :  max(cpu_time)    wall_clock(cpu1)
          | Total time                                 :       17.693 s          17.709 s
          | Preparation time                           :        0.408 s           0.405 s
          | Grid partitioning                          :        0.852 s           0.744 s
          | Preloading free-atom quantities on grid    :        0.176 s           0.151 s
          | Free-atom superposition energy             :        0.084 s           0.052 s
          | Total time for integrations                :        4.252 s           3.187 s
          | Total time for solution of K.-S. equations :        3.752 s           3.194 s
          | Total time for EV reorthonormalization     :        0.136 s           0.124 s
          | Total time for density & force components  :        4.020 s           3.216 s
          | Total time for mixing                      :        1.236 s           0.090 s
          | Total time for Hartree multipole update    :        1.364 s           0.386 s
          | Total time for Hartree multipole sum       :        5.152 s           4.181 s
          | Total time for total energy evaluation     :        0.912 s           0.763 s
          | Total time for scaled ZORA corrections     :        0.000 s           0.000 s
          | Total time for vdW correction              :        0.316 s           0.317 s

          Have a nice day.
------------------------------------------------------------
