14
Iteration: 0
Ca      0.0   0.0   0.0 
O      3.5580   -4.7874    4.2938 
C      3.6762   -4.1916    3.1900 
O      4.9084   -4.2015    2.5418 
C      2.4846   -3.5219    2.5598 
N      1.7622   -2.7309    3.5589 
C      1.5683   -4.5654    1.9102 
H      5.0346   -3.7549    1.6414 
H      2.8444   -2.8330    1.7639 
H      1.2816   -3.3710    4.2333 
H      1.0170   -2.1808    3.0725 
H      1.1877   -5.2824    2.6692 
H      0.7037   -4.0632    1.4267 
H      2.1250   -5.1289    1.1309 
14
Iteration: 1
Ca      0.00000000        0.00000000        0.00000000 
O      3.55213636       -4.77081269        4.27480771 
C      3.66475577       -4.19857067        3.20080427 
O      4.87936030       -4.21998141        2.56183542 
C      2.47750079       -3.51407461        2.54239292 
N      1.78462872       -2.70832117        3.55373505 
C      1.58634799       -4.57949589        1.88102588 
H      4.94647848       -3.75007928        1.69277952 
H      2.84258280       -2.81808090        1.76052515 
H      1.34733446       -3.33361726        4.25158005 
H      1.02078493       -2.18257607        3.09910155 
H      1.20951598       -5.28295236        2.64258284 
H      0.71954903       -4.08610109        1.40707829 
H      2.12337555       -5.15786464        1.10980368 
14
Iteration: 2
Ca      0.00000000        0.00000000        0.00000000 
O      3.53197858       -4.75962244        4.27660220 
C      3.65700116       -4.20590226        3.21953404 
O      4.85361030       -4.24360054        2.57835015 
C      2.48019974       -3.50580776        2.51927676 
N      1.80520964       -2.68901188        3.53358653 
C      1.59698836       -4.58292409        1.85547361 
H      4.85220523       -3.74500192        1.73748657 
H      2.85614516       -2.80834637        1.74763700 
H      1.43041622       -3.29557440        4.27793274 
H      1.01164082       -2.19081390        3.11533352 
H      1.22493525       -5.28157234        2.61655086 
H      0.72762719       -4.10722152        1.37630141 
H      2.13466629       -5.16737734        1.09666450 
14
Iteration: 3
Ca      0.00000000        0.00000000        0.00000000 
O      3.51317948       -4.74678037        4.29770181 
C      3.64967036       -4.21757164        3.22622126 
O      4.84332242       -4.25604686        2.58373441 
C      2.48214684       -3.50262303        2.50780959 
N      1.81429496       -2.67709263        3.51749386 
C      1.60023571       -4.58050990        1.84144984 
H      4.80843979       -3.74228133        1.75433938 
H      2.87007725       -2.81099205        1.73661718 
H      1.48737969       -3.27234270        4.29604140 
H      0.99426498       -2.20416396        3.11979822 
H      1.22781359       -5.27851368        2.60230844 
H      0.73154507       -4.11199588        1.35459936 
H      2.14548611       -5.16524474        1.08844521 
14
Iteration: 4
Ca      0.00000000        0.00000000        0.00000000 
O      3.47938953       -4.73497861        4.32170684 
C      3.64388091       -4.20864465        3.24586588 
O      4.82818960       -4.28361760        2.58555983 
C      2.48487559       -3.49517585        2.49757477 
N      1.82165112       -2.65756935        3.49455749 
C      1.60552089       -4.57230221        1.82476582 
H      4.76060267       -3.75402993        1.76932041 
H      2.89334295       -2.81747899        1.72198263 
H      1.56796751       -3.23681757        4.31682054 
H      0.95969864       -2.23418327        3.12080641 
H      1.22645296       -5.27100462        2.58280346 
H      0.74062750       -4.11130282        1.32205828 
H      2.16578803       -5.15514436        1.07903957 
14
Iteration: 5
Ca      0.00000000        0.00000000        0.00000000 
O      3.47118381       -4.71809776        4.33401960 
C      3.63634925       -4.21690239        3.24287827 
O      4.82595714       -4.28710814        2.58979554 
C      2.48483314       -3.49300181        2.49716889 
N      1.82201989       -2.65114613        3.48852210 
C      1.60500420       -4.56570653        1.82041626 
H      4.75940031       -3.76662871        1.77038901 
H      2.90466008       -2.82326420        1.71815054 
H      1.58776573       -3.22324329        4.31335879 
H      0.94927166       -2.24888181        3.12054630 
H      1.21856150       -5.26549547        2.57505553 
H      0.74584118       -4.10082425        1.31034761 
H      2.17177191       -5.14667818        1.07638264 
14
Iteration: 6
Ca      0.00000000        0.00000000        0.00000000 
O      3.46008868       -4.70265978        4.33981520 
C      3.62754466       -4.21349341        3.24424427 
O      4.81989591       -4.29666149        2.59474979 
C      2.48443226       -3.48725946        2.49736133 
N      1.81735426       -2.63873265        3.47753636 
C      1.60558244       -4.55502117        1.81428028 
H      4.76236230       -3.78779094        1.76858450 
H      2.91753975       -2.82836170        1.71394431 
H      1.62266483       -3.19724480        4.31913454 
H      0.92187938       -2.28130040        3.11747173 
H      1.20539953       -5.25489732        2.56281620 
H      0.75612403       -4.08270160        1.29361202 
H      2.17857195       -5.13516860        1.07320999 
14
Iteration: 7
Ca      0.00000000        0.00000000        0.00000000 
O      3.42512018       -4.64291559        4.36823168 
C      3.59949542       -4.19915562        3.25692388 
O      4.80002955       -4.35006387        2.62231299 
C      2.49028255       -3.47269157        2.50173124 
N      1.79771618       -2.60118196        3.43914133 
C      1.61566995       -4.52373146        1.79608073 
H      4.78772582       -3.88871082        1.76286341 
H      2.97352743       -2.85416008        1.70583801 
H      1.78650262       -3.09463499        4.36397772 
H      0.79549956       -2.46096867        3.12059069 
H      1.16207262       -5.22130273        2.52116980 
H      0.80314423       -4.02402293        1.23613675 
H      2.20657974       -5.10324856        1.06610233 
14
Iteration: 8
Ca      0.00000000        0.00000000        0.00000000 
O      3.44892486       -4.65115349        4.35748464 
C      3.61072845       -4.18688913        3.25946577 
O      4.80814635       -4.35422099        2.62351870 
C      2.49592502       -3.48016356        2.50917792 
N      1.78655965       -2.62390501        3.45479444 
C      1.61922794       -4.53129223        1.80651779 
H      4.82677280       -3.90455056        1.74854203 
H      2.96497749       -2.84935258        1.72262412 
H      1.71712912       -3.11054388        4.33569960 
H      0.83695948       -2.45011712        3.13094244 
H      1.16767258       -5.22421961        2.53401945 
H      0.80466194       -4.02782264        1.25680558 
H      2.19549533       -5.11674238        1.07370892 
14
Iteration: 9
Ca      0.00000000        0.00000000        0.00000000 
O      3.41903369       -4.61241490        4.39259691 
C      3.59799135       -4.19461475        3.27011944 
O      4.79374386       -4.37817752        2.63670517 
C      2.49915577       -3.47346756        2.48886457 
N      1.78874210       -2.60548454        3.42025843 
C      1.62421908       -4.52276749        1.78135440 
H      4.79256454       -3.93093852        1.77088432 
H      2.98481971       -2.85047017        1.70307483 
H      1.77963750       -3.06555543        4.34260097 
H      0.81981618       -2.46433046        3.12535640 
H      1.16682424       -5.21088735        2.50932480 
H      0.81547109       -4.02190723        1.21978668 
H      2.21146331       -5.11204149        1.05874528 
14
Iteration: 10
Ca      0.00000000        0.00000000        0.00000000 
O      3.38333012       -4.53175869        4.44793922 
C      3.57789405       -4.18685286        3.29665693 
O      4.76868445       -4.44973040        2.67161971 
C      2.51516798       -3.46033375        2.47233697 
N      1.77114064       -2.57607940        3.36573726 
C      1.64333547       -4.49991981        1.74885214 
H      4.78588139       -4.04380283        1.78322024 
H      3.03932566       -2.85985386        1.69086915 
H      1.91442034       -2.95596146        4.35091320 
H      0.73384506       -2.60957169        3.13426752 
H      1.15301952       -5.17698121        2.46683664 
H      0.85858384       -3.98782876        1.16016736 
H      2.23979024       -5.09930328        1.04227810 
14
Iteration: 11
Ca      0.00000000        0.00000000        0.00000000 
O      3.41066484       -4.57143581        4.41833990 
C      3.59377254       -4.19173754        3.28286488 
O      4.78023598       -4.41067034        2.65199856 
C      2.50818407       -3.46702338        2.47509528 
N      1.77768154       -2.59594034        3.39271613 
C      1.63514467       -4.51705066        1.76449735 
H      4.77842209       -3.97978088        1.77867964 
H      3.00202434       -2.84347262        1.70030640 
H      1.82668554       -3.01542537        4.33592283 
H      0.78547139       -2.52791926        3.13437896 
H      1.17498791       -5.19743167        2.49420126 
H      0.82927224       -4.01869442        1.20024442 
H      2.21909625       -5.11475243        1.04852686 
14
Iteration: 12
Ca      0.00000000        0.00000000        0.00000000 
O      3.40240795       -4.48313164        4.46270402 
C      3.58663041       -4.17402719        3.30424358 
O      4.75225331       -4.47705414        2.67365924 
C      2.52088170       -3.45393080        2.45583320 
N      1.73900456       -2.58003327        3.34346765 
C      1.65603828       -4.50476260        1.73534425 
H      4.76535466       -4.08421858        1.77654056 
H      3.03652937       -2.83023465        1.70318517 
H      1.91621213       -2.90526666        4.33361987 
H      0.70517225       -2.68630463        3.15975345 
H      1.18777713       -5.17433617        2.46594196 
H      0.85630676       -4.00697905        1.16558311 
H      2.23449916       -5.11337018        1.02824888 
14
Iteration: 13
Ca      0.00000000        0.00000000        0.00000000 
O      3.39318794       -4.46045007        4.47488929 
C      3.58431750       -4.16870401        3.30786548 
O      4.74598982       -4.49010724        2.67567715 
C      2.52096636       -3.44873214        2.44616958 
N      1.73707305       -2.57057986        3.32888586 
C      1.65931522       -4.50356361        1.72684845 
H      4.75376407       -4.09963985        1.78091540 
H      3.04313122       -2.82624610        1.69452659 
H      1.89810452       -2.88793357        4.30972751 
H      0.72101835       -2.66851835        3.14281355 
H      1.19105515       -5.16959889        2.46215195 
H      0.85845094       -4.01214271        1.15088220 
H      2.24214977       -5.11711513        1.02583847 
14
Iteration: 14
Ca      0.00000000        0.00000000        0.00000000 
O      3.38756108       -4.39503991        4.49742183 
C      3.58022559       -4.14909903        3.32276096 
O      4.72210205       -4.54236893        2.69678052 
C      2.52804212       -3.43734916        2.42800196 
N      1.70587443       -2.54956017        3.27974151 
C      1.68151814       -4.50452987        1.70948952 
H      4.73829096       -4.19219844        1.78291332 
H      3.07005308       -2.81608554        1.68990258 
H      1.89746756       -2.79177547        4.26774106 
H      0.71120869       -2.73894308        3.12717624 
H      1.21084814       -5.15971849        2.45445130 
H      0.88003761       -4.02715549        1.12012546 
H      2.26859850       -5.13184235        1.02380716 
14
Iteration: 15
Ca      0.00000000        0.00000000        0.00000000 
O      3.38461742       -4.31225043        4.52128820 
C      3.57164271       -4.12901471        3.33514199 
O      4.68903320       -4.60427275        2.72072395 
C      2.53625881       -3.42527134        2.41293897 
N      1.67100001       -2.53030211        3.22616361 
C      1.70668513       -4.50152073        1.69253922 
H      4.71962012       -4.30110987        1.78548163 
H      3.09967258       -2.80810481        1.68929529 
H      1.91907768       -2.67422149        4.22432491 
H      0.68505974       -2.86294714        3.13660194 
H      1.23252590       -5.15361339        2.43902543 
H      0.90692926       -4.03683070        1.09041970 
H      2.30096696       -5.13392242        1.01996215 
14
Iteration: 16
Ca      0.00000000        0.00000000        0.00000000 
O      3.38364896       -4.24177635        4.51739783 
C      3.55511091       -4.11061160        3.33653281 
O      4.64905158       -4.64761334        2.75418355 
C      2.53885715       -3.41976419        2.40048761 
N      1.63381145       -2.51799440        3.16226494 
C      1.73201200       -4.50623196        1.68117819 
H      4.69681525       -4.40093648        1.79800004 
H      3.11917791       -2.81305408        1.68395993 
H      1.92453462       -2.54285597        4.17749083 
H      0.68963998       -2.96461970        3.15736731 
H      1.25552042       -5.16357966        2.42311113 
H      0.93604521       -4.05612593        1.06515398 
H      2.34228419       -5.13329129        1.02221364 
14
Iteration: 17
Ca      0.00000000        0.00000000        0.00000000 
O      3.37052087       -4.14168667        4.55237189 
C      3.54012079       -4.09362911        3.34771552 
O      4.61525597       -4.70759374        2.77570266 
C      2.54493402       -3.41422881        2.38626468 
N      1.61935129       -2.50901368        3.10834523 
C      1.75536228       -4.50967635        1.66617432 
H      4.67001538       -4.48958618        1.81814370 
H      3.13935421       -2.82483632        1.66503904 
H      1.92154939       -2.47635873        4.10656936 
H      0.70786811       -3.00446124        3.16613369 
H      1.27352211       -5.17158967        2.40253242 
H      0.96553903       -4.07251221        1.03339834 
H      2.38536446       -5.13292475        1.02141450 
14
Iteration: 18
Ca      0.00000000        0.00000000        0.00000000 
O      3.35737283       -4.08526017        4.55111370 
C      3.52380587       -4.07403234        3.35824635 
O      4.58059445       -4.72138934        2.80774175 
C      2.54521682       -3.41600453        2.37591799 
N      1.62070428       -2.50018130        3.05262589 
C      1.77549827       -4.52834699        1.65900338 
H      4.62226005       -4.53844259        1.85523247 
H      3.14397057       -2.84989735        1.63575811 
H      1.89690331       -2.42903322        4.00550753 
H      0.75864122       -2.99598414        3.17537713 
H      1.29501996       -5.19722936        2.39239339 
H      0.98942805       -4.10700907        1.01363037 
H      2.42895775       -5.14557508        1.02796453 
14
Iteration: 19
Ca      0.00000000        0.00000000        0.00000000 
O      3.36994143       -4.11772156        4.55722554 
C      3.53596076       -4.08750598        3.35733265 
O      4.60125922       -4.70862580        2.78863776 
C      2.54447652       -3.42039452        2.38428469 
N      1.61579371       -2.51565159        3.08839114 
C      1.76111763       -4.51684419        1.65437317 
H      4.64503228       -4.50645307        1.83423365 
H      3.13838224       -2.83156119        1.66101292 
H      1.93043029       -2.45211675        4.08001814 
H      0.72592953       -3.00912350        3.18916066 
H      1.28102829       -5.18197068        2.38834125 
H      0.97366209       -4.07682439        1.02538503 
H      2.39657708       -5.13528529        1.00989014 
14
Iteration: 20
Ca      0.00000000        0.00000000        0.00000000 
O      3.37188724       -4.09105449        4.56205939 
C      3.53297519       -4.07953329        3.36550647 
O      4.59101238       -4.70967902        2.80431000 
C      2.54495421       -3.42115761        2.38394471 
N      1.61066466       -2.51559513        3.07408995 
C      1.76693674       -4.51953961        1.64574740 
H      4.62747486       -4.53808500        1.84032546 
H      3.14000305       -2.83172704        1.66151456 
H      1.93830308       -2.42636225        4.04438772 
H      0.73057128       -3.03930317        3.21397350 
H      1.28653065       -5.18843367        2.37587376 
H      0.98111431       -4.07607717        1.01858674 
H      2.40443332       -5.13527423        1.00015646 
14
Iteration: 21
Ca      0.00000000        0.00000000        0.00000000 
O      3.36794174       -4.03676172        4.57974993 
C      3.52519841       -4.07042655        3.37740953 
O      4.57480968       -4.73004825        2.82860883 
C      2.54535807       -3.42534700        2.37650970 
N      1.59986229       -2.51239518        3.04121238 
C      1.77893240       -4.52840671        1.62985190 
H      4.60471084       -4.59205619        1.85759777 
H      3.14887056       -2.84028227        1.65509341 
H      1.94981427       -2.36726505        4.00466051 
H      0.74627466       -3.06483035        3.22863695 
H      1.29570662       -5.20207910        2.35366019 
H      0.99685285       -4.08418228        0.99787927 
H      2.42447903       -5.13974068        0.98674712 
14
Iteration: 22
Ca      0.00000000        0.00000000        0.00000000 
O      3.36608001       -3.98285997        4.58955222 
C      3.51929182       -4.06242168        3.38889710 
O      4.56802446       -4.74588710        2.85969627 
C      2.54354863       -3.43472256        2.36975575 
N      1.58212869       -2.51838658        3.01164488 
C      1.78703199       -4.53989270        1.60972254 
H      4.58862149       -4.64526506        1.88748458 
H      3.15378668       -2.84623863        1.65548813 
H      1.97176049       -2.29575352        3.95840438 
H      0.76339581       -3.09056676        3.26565295 
H      1.30023696       -5.22444388        2.31980228 
H      1.00858791       -4.08460011        0.97854659 
H      2.43509212       -5.14110365        0.95910482 
14
Iteration: 23
Ca      0.00000000        0.00000000        0.00000000 
O      3.36280629       -3.93327351        4.59840781 
C      3.51315040       -4.05484359        3.39853131 
O      4.56941553       -4.74502396        2.89795642 
C      2.54173891       -3.44464433        2.35984579 
N      1.56811004       -2.52367046        2.98496898 
C      1.79329509       -4.55100245        1.59293406 
H      4.57974495       -4.70607440        1.90909941 
H      3.15812715       -2.85549801        1.65128569 
H      1.98112290       -2.23806674        3.90466830 
H      0.77963889       -3.10526558        3.29168735 
H      1.30292657       -5.24278040        2.29316899 
H      1.01720239       -4.08974093        0.96042529 
H      2.44540797       -5.14519108        0.93807748 
14
Iteration: 24
Ca      0.00000000        0.00000000        0.00000000 
O      3.35183179       -3.89824059        4.59526488 
C      3.50616091       -4.05090082        3.40545317 
O      4.57082235       -4.76155979        2.92736248 
C      2.53954252       -3.45315181        2.34636919 
N      1.55801523       -2.52603352        2.96099321 
C      1.79893515       -4.56057654        1.57799343 
H      4.57703328       -4.74267909        1.95431919 
H      3.16482421       -2.86576325        1.64442933 
H      1.99498704       -2.17511476        3.83895625 
H      0.79448432       -3.11506210        3.32439878 
H      1.30712995       -5.25921026        2.27010462 
H      1.02196971       -4.09986111        0.94277740 
H      2.45624156       -5.14825006        0.91949483 
14
Iteration: 25
Ca      0.00000000        0.00000000        0.00000000 
O      3.33923884       -3.86601854        4.59602039 
C      3.49754070       -4.04411375        3.41056318 
O      4.56820759       -4.75965953        2.95535839 
C      2.53854311       -3.45986645        2.33236359 
N      1.55340414       -2.52616458        2.93435396 
C      1.80709777       -4.57068543        1.56882218 
H      4.57064479       -4.78611831        1.97680578 
H      3.16911538       -2.87938640        1.63237225 
H      1.99160221       -2.13102296        3.77956543 
H      0.80858254       -3.11350345        3.33260484 
H      1.31637336       -5.27034830        2.26064397 
H      1.02879752       -4.12272136        0.92796274 
H      2.47255937       -5.15607514        0.91653875 
14
Iteration: 26
Ca      0.00000000        0.00000000        0.00000000 
O      3.32854543       -3.82937601        4.59614221 
C      3.48728436       -4.03653796        3.41383708 
O      4.55451057       -4.76259675        2.97659157 
C      2.53834742       -3.46568003        2.32064586 
N      1.54602517       -2.53052033        2.90341562 
C      1.81830926       -4.58102920        1.55954799 
H      4.55531698       -4.82690280        1.99748327 
H      3.17457741       -2.89079835        1.62420594 
H      1.99134337       -2.07947674        3.72057150 
H      0.82168658       -3.12196150        3.34978644 
H      1.32949362       -5.28220360        2.25175834 
H      1.04034271       -4.14736784        0.91241549 
H      2.49340364       -5.16345670        0.91655163 
14
Iteration: 27
Ca      0.00000000        0.00000000        0.00000000 
O      3.30975009       -3.81819724        4.58335008 
C      3.47406998       -4.03558650        3.40940649 
O      4.54033069       -4.74647748        2.98641484 
C      2.53757478       -3.47632003        2.31119103 
N      1.54511244       -2.54712081        2.87926100 
C      1.82943088       -4.59462665        1.55544003 
H      4.54338353       -4.84516326        2.01809009 
H      3.17792484       -2.90511560        1.62252128 
H      1.98352726       -2.03965169        3.65264487 
H      0.83545050       -3.09309608        3.36138248 
H      1.34392596       -5.29368811        2.25314105 
H      1.05330314       -4.18530564        0.89908912 
H      2.51498355       -5.17529485        0.92989373 
14
Iteration: 28
Ca      0.00000000        0.00000000        0.00000000 
O      3.29790951       -3.78646562        4.58923806 
C      3.46872999       -4.02162753        3.41706483 
O      4.52869166       -4.77275182        3.00067692 
C      2.54006281       -3.47043473        2.30211809 
N      1.53502569       -2.53279317        2.84670674 
C      1.84342657       -4.60417433        1.55230588 
H      4.53366130       -4.89218334        2.02926347 
H      3.18860181       -2.90888310        1.60896140 
H      1.97787433       -1.99901331        3.60752681 
H      0.83968717       -3.09757649        3.34935035 
H      1.35521378       -5.29791036        2.25394390 
H      1.07004758       -4.20418789        0.88175153 
H      2.53845999       -5.19183729        0.93868966 
14
Iteration: 29
Ca      0.00000000        0.00000000        0.00000000 
O      3.28778255       -3.76564912        4.59174712 
C      3.46226547       -4.01855410        3.41812441 
O      4.52071250       -4.77581140        3.01925572 
C      2.54161367       -3.47275996        2.28942866 
N      1.53251301       -2.52506642        2.81355155 
C      1.85244346       -4.62006839        1.54836081 
H      4.51882205       -4.90703681        2.05172930 
H      3.19788602       -2.91862187        1.59372314 
H      1.97636053       -1.96641989        3.55679527 
H      0.84588743       -3.08996372        3.33655847 
H      1.36051151       -5.30469484        2.25677031 
H      1.08483917       -4.22744775        0.86393431 
H      2.55466024       -5.21687292        0.94877126 
14
Iteration: 30
Ca      0.00000000        0.00000000        0.00000000 
O      3.27034147       -3.75783700        4.58881964 
C      3.45601603       -4.00954794        3.41966390 
O      4.51294573       -4.77843880        3.03497120 
C      2.54513934       -3.47101579        2.27739751 
N      1.53073955       -2.51743300        2.77953952 
C      1.86330655       -4.63530865        1.54847768 
H      4.50935620       -4.92546457        2.06859382 
H      3.20598201       -2.92476608        1.57768040 
H      1.97536186       -1.94316832        3.50580065 
H      0.84721603       -3.07171478        3.31850448 
H      1.36522114       -5.30738157        2.26542853 
H      1.10430607       -4.25130792        0.84846207 
H      2.57203056       -5.24392440        0.96645910 
14
Iteration: 31
Ca      0.00000000        0.00000000        0.00000000 
O      3.25200766       -3.74815582        4.58613467 
C      3.44974418       -4.00093676        3.41981879 
O      4.50778056       -4.77758859        3.05347109 
C      2.54917928       -3.47560245        2.26553785 
N      1.53153931       -2.51513141        2.74445760 
C      1.87121261       -4.65191259        1.54791508 
H      4.50937729       -4.93761179        2.09041739 
H      3.20982090       -2.93556763        1.56317871 
H      1.97667659       -1.91989699        3.45452160 
H      0.85123667       -3.04995161        3.29730096 
H      1.36572464       -5.31255268        2.26968668 
H      1.12241629       -4.27405044        0.83712985 
H      2.58254943       -5.26881395        0.98079332 
14
Iteration: 32
Ca      0.00000000        0.00000000        0.00000000 
O      3.22918039       -3.73848506        4.58333756 
C      3.44185602       -3.99273324        3.41895286 
O      4.50002821       -4.77628603        3.07155202 
C      2.55464674       -3.48028319        2.25258658 
N      1.53683275       -2.51212463        2.70939139 
C      1.87786445       -4.66494061        1.54737970 
H      4.51223487       -4.94551764        2.11157005 
H      3.21933038       -2.95080283        1.54608891 
H      1.98116471       -1.90349217        3.40565360 
H      0.85429227       -3.02836156        3.27800015 
H      1.36303591       -5.31148929        2.27477205 
H      1.13947808       -4.29717295        0.82202925 
H      2.59395778       -5.29339393        0.99955865 
14
Iteration: 33
Ca      0.00000000        0.00000000        0.00000000 
O      3.20476568       -3.72925031        4.58055981 
C      3.43359783       -3.98685851        3.41968521 
O      4.49474669       -4.77274102        3.09341434 
C      2.55993093       -3.48833744        2.24067839 
N      1.54350226       -2.50691174        2.67517154 
C      1.88284286       -4.67712229        1.54554567 
H      4.52030340       -4.95363900        2.13440527 
H      3.23087141       -2.97158780        1.52999571 
H      1.98838498       -1.87949141        3.35932766 
H      0.86105756       -3.00882526        3.25603479 
H      1.35697720       -5.31057796        2.27558289 
H      1.15414181       -4.31774326        0.80675691 
H      2.60197894       -5.31629836        1.01474479 
14
Iteration: 34
Ca      0.00000000        0.00000000        0.00000000 
O      3.17017101       -3.73147902        4.57716280 
C      3.42504559       -3.98463850        3.41852519 
O      4.49364871       -4.76565528        3.11568644 
C      2.56903007       -3.49916428        2.22852465 
N      1.56180449       -2.49485633        2.64244306 
C      1.88153425       -4.68642932        1.54768827 
H      4.55108128       -4.93617559        2.15666676 
H      3.24762742       -3.00267664        1.51004251 
H      2.00600671       -1.87728110        3.33030234 
H      0.86411147       -2.98318949        3.21180744 
H      1.33703824       -5.29959774        2.27897619 
H      1.16563312       -4.33214571        0.79567570 
H      2.59621008       -5.34309154        1.03584837 
14
Iteration: 35
Ca      0.00000000        0.00000000        0.00000000 
O      3.13442517       -3.72476390        4.57176576 
C      3.41352042       -3.98233168        3.41845317 
O      4.49094323       -4.76158296        3.13923006 
C      2.57519045       -3.50681573        2.21236462 
N      1.57556885       -2.48546550        2.60992430 
C      1.88223902       -4.69787708        1.54631711 
H      4.57783655       -4.92728369        2.18067643 
H      3.26271384       -3.02812475        1.49141773 
H      2.02746997       -1.86568516        3.29453239 
H      0.86757220       -2.96255360        3.18447158 
H      1.32208786       -5.29228245        2.28116612 
H      1.17767992       -4.34894521        0.77969410 
H      2.59571922       -5.37212996        1.05378483 
14
Iteration: 36
Ca      0.00000000        0.00000000        0.00000000 
O      3.09705015       -3.72712478        4.56503448 
C      3.40118188       -3.98580335        3.41969684 
O      4.48965586       -4.75676609        3.15977415 
C      2.58142629       -3.51300808        2.19601635 
N      1.59307639       -2.47051713        2.57832885 
C      1.87967293       -4.70902574        1.54670787 
H      4.60987327       -4.90365086        2.20130757 
H      3.28168908       -3.05523268        1.47406470 
H      2.05216030       -1.85902592        3.26857037 
H      0.86930960       -2.94125469        3.14261663 
H      1.30386459       -5.28020747        2.28952380 
H      1.18754437       -4.36454359        0.76368039 
H      2.59128170       -5.40538081        1.07673828 
14
Iteration: 37
Ca      0.00000000        0.00000000        0.00000000 
O      3.06435292       -3.72494933        4.55938814 
C      3.38997369       -3.98766148        3.42112424 
O      4.48774019       -4.75411172        3.18062572 
C      2.58778304       -3.51844753        2.18078735 
N      1.60646615       -2.46038692        2.54315824 
C      1.87946873       -4.72065464        1.54662331 
H      4.63383174       -4.89050700        2.22290756 
H      3.29956309       -3.07840118        1.45914318 
H      2.06820726       -1.84872633        3.23224063 
H      0.87150739       -2.91859306        3.10374556 
H      1.29423790       -5.27329777        2.29707678 
H      1.19783616       -4.38363000        0.75265276 
H      2.58804601       -5.43165985        1.09634467 
14
Iteration: 38
Ca      0.00000000        0.00000000        0.00000000 
O      3.03681079       -3.72383292        4.55292189 
C      3.37911381       -3.99083389        3.42336415 
O      4.48405981       -4.75092695        3.19779020 
C      2.59344759       -3.52442902        2.16824946 
N      1.62032984       -2.45303798        2.50668283 