  MPI-parallelism will be employed.
------------------------------------------------------------
          Invoking FHI-aims ...
          Version 160328_3
          Compiled on 2017/02/27 at 14:26:39 on host eos01.

          When using FHI-aims, please cite the following reference:

          Volker Blum, Ralf Gehrke, Felix Hanke, Paula Havu,
          Ville Havu, Xinguo Ren, Karsten Reuter, and Matthias Scheffler,
          'Ab Initio Molecular Simulations with Numeric Atom-Centered Orbitals',
          Computer Physics Communications 180, 2175-2196 (2009)

          For any questions about FHI-aims, please visit the aimsclub website
          with its forums and wiki. Contributions to both the forums and the
          wiki are warmly encouraged - they are for you, and everyone is welcome there.

------------------------------------------------------------

  Date     :  20170702, Time     :  200757.784
  Time zero on CPU 1             :   0.552034000000000E+00  s.
  Internal wall clock time zero  :           268258077.784  s.

  Using       64 parallel tasks.
  Task        0 on host eos337 reporting.
  Task        1 on host eos337 reporting.
  Task        2 on host eos337 reporting.
  Task        3 on host eos337 reporting.
  Task        4 on host eos337 reporting.
  Task        5 on host eos337 reporting.
  Task        6 on host eos337 reporting.
  Task        7 on host eos337 reporting.
  Task        8 on host eos337 reporting.
  Task        9 on host eos337 reporting.
  Task       10 on host eos337 reporting.
  Task       11 on host eos337 reporting.
  Task       12 on host eos337 reporting.
  Task       13 on host eos337 reporting.
  Task       14 on host eos337 reporting.
  Task       15 on host eos337 reporting.
  Task       16 on host eos337 reporting.
  Task       17 on host eos337 reporting.
  Task       18 on host eos337 reporting.
  Task       19 on host eos337 reporting.
  Task       20 on host eos337 reporting.
  Task       21 on host eos337 reporting.
  Task       22 on host eos337 reporting.
  Task       23 on host eos337 reporting.
  Task       24 on host eos337 reporting.
  Task       25 on host eos337 reporting.
  Task       26 on host eos337 reporting.
  Task       27 on host eos337 reporting.
  Task       28 on host eos337 reporting.
  Task       29 on host eos337 reporting.
  Task       30 on host eos337 reporting.
  Task       31 on host eos337 reporting.
  Task       32 on host eos068 reporting.
  Task       33 on host eos068 reporting.
  Task       34 on host eos068 reporting.
  Task       35 on host eos068 reporting.
  Task       36 on host eos068 reporting.
  Task       37 on host eos068 reporting.
  Task       38 on host eos068 reporting.
  Task       39 on host eos068 reporting.
  Task       40 on host eos068 reporting.
  Task       41 on host eos068 reporting.
  Task       42 on host eos068 reporting.
  Task       43 on host eos068 reporting.
  Task       44 on host eos068 reporting.
  Task       45 on host eos068 reporting.
  Task       46 on host eos068 reporting.
  Task       47 on host eos068 reporting.
  Task       48 on host eos068 reporting.
  Task       49 on host eos068 reporting.
  Task       50 on host eos068 reporting.
  Task       51 on host eos068 reporting.
  Task       52 on host eos068 reporting.
  Task       53 on host eos068 reporting.
  Task       54 on host eos068 reporting.
  Task       55 on host eos068 reporting.
  Task       56 on host eos068 reporting.
  Task       57 on host eos068 reporting.
  Task       58 on host eos068 reporting.
  Task       59 on host eos068 reporting.
  Task       60 on host eos068 reporting.
  Task       61 on host eos068 reporting.
  Task       62 on host eos068 reporting.
  Task       63 on host eos068 reporting.

  Performing system and environment tests:
  *** Environment variable OMP_NUM_THREADS is not set
  *** For performance reasons you might want to set it to 1
  | Stacksize not measured: no C compiler
  | Checking for scalapack...
  | Testing pdtran()...
  | All pdtran() tests passed.

  Obtaining array dimensions for all initial allocations:
  
  -----------------------------------------------------------------------
  Parsing control.in (first pass over file, find array dimensions only).
  The contents of control.in will be repeated verbatim below
  unless switched off by setting 'verbatim_writeout .false.' .
  in the first line of control.in .
  -----------------------------------------------------------------------
  
  #########################################################################################
  #
  #  Volker Blum, FHI 2009 : Test run input file control.in for simple H2O
  #
  #########################################################################################
  #
  #  Physical model
  #
    xc                 pbe
  # many_body_dispersion
    vdw_correction_hirshfeld
    relativistic       atomic_zora scalar
    charge             1.0
  #
  #  SCF convergence
  #
    sc_accuracy_rho    1E-3
    sc_accuracy_eev    1E-2
    sc_accuracy_etot   1E-5
    sc_accuracy_forces 5E-3
    sc_iter_limit      1000
  #
  #  Relaxation
  #
  #RI_method LVL_fast
    relax_geometry trm 5E-2
  #  relax_geometry   bfgs_textbook 1.e-2
  #
  ################################################################################
  #
  #  FHI-aims code project
  #  VB, Fritz-Haber Institut, 2009
  #
  #  Suggested "light" defaults for H atom (to be pasted into control.in file)
  #  Be sure to double-check any results obtained with these settings for post-processing,
  #  e.g., with the "tight" defaults and larger basis sets.
  #
  ################################################################################
    species        H
  #     global species definitions
      nucleus             1
      mass                1.00794
  #
      l_hartree           3
  #
      cut_pot             3.0  1.5  1.0
      basis_dep_cutoff    1e-4
  #
      radial_base         24 5.0
      radial_multiplier   1
      angular_grids       specified
        division   0.2421   50
        division   0.3822  110
  #      division   0.4799  194
  #      division   0.5341  302
  #      division   0.5626  434
  #      division   0.5922  590
  #      division   0.6542  770
  #      division   0.6868 1202
  #      outer_grid  770
        outer_grid  110
  ################################################################################
  #
  #  Definition of "minimal" basis
  #
  ################################################################################
  #     valence basis states
      valence      1  s   1.
  #     ion occupancy
      ion_occ      1  s   0.5
  ################################################################################
  #
  #  Suggested additional basis functions. For production calculations,
  #  uncomment them one after another (the most important basis functions are
  #  listed first).
  #
  #  Basis constructed for dimers: 0.5 A, 0.7 A, 1.0 A, 1.5 A, 2.5 A
  #
  ################################################################################
  #  "First tier" - improvements: -1014.90 meV to -62.69 meV
       hydro 2 s 2.1
       hydro 2 p 3.5
  #  "Second tier" - improvements: -12.89 meV to -1.83 meV
  #     hydro 1 s 0.85
  #     hydro 2 p 3.7
  #     hydro 2 s 1.2
  #     hydro 3 d 7
  #  "Third tier" - improvements: -0.25 meV to -0.12 meV
  #     hydro 4 f 11.2
  #     hydro 3 p 4.8
  #     hydro 4 d 9
  #     hydro 3 s 3.2
  
  ################################################################################
  #
  #  FHI-aims code project
  #  VB, Fritz-Haber Institut, 2009
  #
  #  Suggested "light" defaults for O atom (to be pasted into control.in file)
  #  Be sure to double-check any results obtained with these settings for post-processing,
  #  e.g., with the "tight" defaults and larger basis sets.
  #
  ################################################################################
    species        O
  #     global species definitions
      nucleus             8
      mass                15.9994
  #
      l_hartree           3
  #
      cut_pot             3.0  1.5  1.0
      basis_dep_cutoff    1e-4
  #
      radial_base         36 5.0
      radial_multiplier   1
       angular_grids specified
        division   0.2659   50
        division   0.4451  110
        division   0.6052  194
  #      division   0.7543  302
  #      division   0.8014  434
  #      division   0.8507  590
  #      division   0.8762  770
  #      division   0.9023  974
  #      division   1.2339 1202
  #      outer_grid 974
        outer_grid 194
  ################################################################################
  #
  #  Definition of "minimal" basis
  #
  ################################################################################
  #     valence basis states
      valence      2  s   2.
      valence      2  p   4.
  #     ion occupancy
      ion_occ      2  s   1.
      ion_occ      2  p   3.
  ################################################################################
  #
  #  Suggested additional basis functions. For production calculations,
  #  uncomment them one after another (the most important basis functions are
  #  listed first).
  #
  #  Constructed for dimers: 1.0 A, 1.208 A, 1.5 A, 2.0 A, 3.0 A
  #
  ################################################################################
  #  "First tier" - improvements: -699.05 meV to -159.38 meV
       hydro 2 p 1.8
       hydro 3 d 7.6
       hydro 3 s 6.4
  #  "Second tier" - improvements: -49.91 meV to -5.39 meV
  #     hydro 4 f 11.6
  #     hydro 3 p 6.2
  #     hydro 3 d 5.6
  #     hydro 5 g 17.6
  #     hydro 1 s 0.75
  #  "Third tier" - improvements: -2.83 meV to -0.50 meV
  #     ionic 2 p auto
  #     hydro 4 f 10.8
  #     hydro 4 d 4.7
  #     hydro 2 s 6.8
  #  "Fourth tier" - improvements: -0.40 meV to -0.12 meV
  #     hydro 3 p 5
  #     hydro 3 s 3.3
  #     hydro 5 g 15.6
  #     hydro 4 f 17.6
  #     hydro 4 d 14
  # Further basis functions - -0.08 meV and below
  #     hydro 3 s 2.1
  #     hydro 4 d 11.6
  #     hydro 3 p 16
  #     hydro 2 s 17.2
  ################################################################################
  #
  #  FHI-aims code project
  #  VB, Fritz-Haber Institut, 2009
  #
  #  Suggested "light" defaults for C atom (to be pasted into control.in file)
  #  Be sure to double-check any results obtained with these settings for post-processing,
  #  e.g., with the "tight" defaults and larger basis sets.
  #
  ################################################################################
    species        C
  #     global species definitions
      nucleus             6
      mass                12.0107
  #
      l_hartree           3
  #
      cut_pot             3.0  1.5  1.0
      basis_dep_cutoff    1e-4
  #
      radial_base         34 5.0
      radial_multiplier   1
      angular_grids specified
        division   0.3326   50
        division   0.5710  110
        division   0.7727  194
  #      division   0.8772  302
  #      division   0.9334  434
  #      division   0.9625  590
  #      division   0.9924  770
  #      division   1.0230  974
  #      division   1.4589 1202
  #     outer_grid  974
       outer_grid 194
  ################################################################################
  #
  #  Definition of "minimal" basis
  #
  ################################################################################
  #     valence basis states
      valence      2  s   2.
      valence      2  p   2.
  #     ion occupancy
      ion_occ      2  s   1.
      ion_occ      2  p   1.
  ################################################################################
  #
  #  Suggested additional basis functions. For production calculations,
  #  uncomment them one after another (the most important basis functions are
  #  listed first).
  #
  #  Constructed for dimers: 1.0 A, 1.25 A, 1.5 A, 2.0 A, 3.0 A
  #
  ################################################################################
  #  "First tier" - improvements: -1214.57 meV to -155.61 meV
       hydro 2 p 1.7
       hydro 3 d 6
       hydro 2 s 4.9
  #  "Second tier" - improvements: -67.75 meV to -5.23 meV
  #     hydro 4 f 9.8
  #     hydro 3 p 5.2
  #     hydro 3 s 4.3
  #     hydro 5 g 14.4
  #     hydro 3 d 6.2
  #  "Third tier" - improvements: -2.43 meV to -0.60 meV
  #     hydro 2 p 5.6
  #     hydro 2 s 1.4
  #     hydro 3 d 4.9
  #     hydro 4 f 11.2
  #  "Fourth tier" - improvements: -0.39 meV to -0.18 meV
  #     hydro 2 p 2.1
  #     hydro 5 g 16.4
  #     hydro 4 d 13.2
  #     hydro 3 s 13.6
  #     hydro 4 f 17.6
  #  Further basis functions - improvements: -0.08 meV and below
  #     hydro 3 s 2
  #     hydro 3 p 6
  #     hydro 4 d 20
  ################################################################################
  #
  #  FHI-aims code project
  #  VB, Fritz-Haber Institut, 2009
  #
  #  Suggested "light" defaults for N atom (to be pasted into control.in file)
  #  Be sure to double-check any results obtained with these settings for post-processing,
  #  e.g., with the "tight" defaults and larger basis sets.
  #
  ################################################################################
    species        N
  #     global species definitions
      nucleus             7
      mass                14.0067
  #
      l_hartree           3
  #
      cut_pot             3.0  1.5  1.0
      basis_dep_cutoff    1e-4
  #
      radial_base         35 5.0
      radial_multiplier   1
      angular_grids       specified
        division   0.2599   50
        division   0.4601  110
        division   0.5885  194
  #      division   0.6503  302
  #      division   0.6939  434
  #      division   0.7396  590
  #      division   0.7632  770
  #      division   0.8122  974
  #      division   1.1604 1202
  #      outer_grid  974
        outer_grid  110
  ################################################################################
  #
  #  Definition of "minimal" basis
  #
  ################################################################################
  #     valence basis states
      valence      2  s   2.
      valence      2  p   3.
  #     ion occupancy
      ion_occ      2  s   1.
      ion_occ      2  p   2.
  ################################################################################
  #
  #  Suggested additional basis functions. For production calculations,
  #  uncomment them one after another (the most important basis functions are
  #  listed first).
  #
  #  Constructed for dimers: 1.0 A, 1.1 A, 1.5 A, 2.0 A, 3.0 A
  #
  ################################################################################
  #  "First tier" - improvements: -1193.42 meV to -220.60 meV
       hydro 2 p 1.8
       hydro 3 d 6.8
       hydro 3 s 5.8
  #  "Second tier" - improvements: -80.21 meV to -6.86 meV
  #     hydro 4 f 10.8
  #     hydro 3 p 5.8
  #     hydro 1 s 0.8
  #     hydro 5 g 16
  #     hydro 3 d 4.9
  #  "Third tier" - improvements: -4.29 meV to -0.53 meV
  #     hydro 3 s 16
  #     ionic 2 p auto
  #     hydro 3 d 6.6
  #     hydro 4 f 11.6
  #  "Fourth tier" - improvements: -0.75 meV to -0.25 meV
  #     hydro 2 p 4.5
  #     hydro 2 s 2.4
  #     hydro 5 g 14.4
  #     hydro 4 d 14.4
  #     hydro 4 f 16.8
  # Further basis functions - -0.21 meV and below
  #     hydro 3 p 14.8
  #     hydro 3 s 4.4
  #     hydro 3 d 19.6
  #     hydro 5 g 12.8
  
  
  
  ################################################################################
    species        Na
  #     global species definitions
      nucleus             11
      mass                22.98976928
  #
      l_hartree           3
  #
      cut_pot             4.0          1.5  1.0
      basis_dep_cutoff    1e-4
  #
      radial_base         40 5.5
      radial_multiplier   1
      angular_grids       specified
        division   0.5925  110
        division   0.7843  194
  #      division   1.0201  302
  #      division   1.1879  434
  #      division   1.3799  590
  #      division   1.4503  770
  #      division   7.0005  974
  #      outer_grid  974
        outer_grid  110
  ################################################################################
  #
  #  Definition of "minimal" basis
  #
  ################################################################################
  #     valence basis states
      valence      3  s   1.
      valence      2  p   6.
  #     ion occupancy
      ion_occ      2  s   2.
      ion_occ      2  p   6.
  ################################################################################
  #
  #  Suggested additional basis functions. For production calculations,
  #  uncomment them one after another (the most important basis functions are
  #  listed first).
  #
  #  Constructed for dimers: 2.0 A, 2.5 A, 3.0 A, 3.75 A, 4.5 A
  #
  ################################################################################
  #  "First tier" - improvements: -60.09 meV to -10.02 meV
       hydro 2 p 1.2
       hydro 3 s 1.8
       hydro 3 d 3.8
  #  "Second tier" - improvements: -2.94 meV to -1.27 meV
  #     hydro 4 p 3.1
  #     hydro 3 s 10
  #     hydro 4 f 6.2
  #     hydro 4 d 1.3
  #  "Third tier" - improvements: -0.83 meV to -0.07 meV
  #     hydro 3 d 7.8
  #     hydro 3 p 2.3
  #     hydro 5 g 9.6
  #     hydro 4 p 0.85
  #     hydro 5 f 1.8
  #     hydro 2 s 0.6
  #  Further basis functions that fell out of the optimization - noise level...
  #     hydro 5 g 0.1
  #     hydro 4 d 3.4
  #     hydro 4 s 0.1
  ################################################################################
  #
  #  FHI-aims code project
  #  VB, Fritz-Haber Institut, 2009
  #
  #  Suggested "light" defaults for Ca atom (to be pasted into control.in file)
  #  Be sure to double-check any results obtained with these settings for post-processing,
  #  e.g., with the "tight" defaults and larger basis sets.
  #
  ################################################################################
    species        Ca
  #     global species definitions
      nucleus             20
      mass                40.078
  #
      l_hartree           3
  #
      cut_pot             4.0          1.5  1.0
      basis_dep_cutoff    1e-4
  #
      radial_base         47 5.5
      radial_multiplier   1
      angular_grids       specified
       division   0.5361  110
       division   0.7866  194
  #     division   0.9689  302
  #     division   1.0269  434
  #     division   1.2909  590
  #     division   1.3280  770
  #     division   1.4872  974
  #     outer_grid  974
       outer_grid  194
  ################################################################################
  #
  #  Definition of "minimal" basis
  #
  #  Note: Ca+ ionic basis functions perform better than Ca2+ ionic
  #  basis functions for the neutral Ca dimer. This is why they are used here.
  #
  ################################################################################
  #     valence basis states
      valence      4  s   2.
      valence      3  p   6.
  #     ion occupancy
      ion_occ      4  s   1.
      ion_occ      3  p   6.
  ################################################################################
  #
  #  Suggested additional basis functions. For production calculations,
  #  uncomment them one after another (the most important basis functions are
  #  listed first).
  #
  #  Constructed for dimers: 2.5 A, 3.0 A, 3.5 A, 4.0 A, 5.0 A
  #
  #  Ca appears to require two d functions in tier 1, because the atomic configuration
  #  does not provide a 3d valence function.
  #
  ################################################################################
  #  "First tier" - improvements: -486.29 meV to -11.73 meV
       ionic 3 d auto
       ionic 4 p auto
       hydro 3 d 2.3
  #     hydro 4 f 4.8
       ionic 4 s auto
  #  "Second tier" - improvements: -6.34 meV to -0.27 meV
  #     hydro 5 g 6.8
  #     hydro 3 p 3.8
  #     hydro 6 h 10.4
  #     hydro 1 s 0.55
  #     hydro 5 f 9.2
  #     hydro 5 p 3.3
  #     hydro 4 d 5
  #  "Third tier" - improvements: -0.18 meV to -0.06 meV
  #     hydro 5 p 5.4
  #     hydro 5 f 5
  #     hydro 5 s 4.6
  #     hydro 2 p 4.2
  #     hydro 5 g 9.8
  #     hydro 4 d 5.2
  #  Two extra functions (no real "tier") - improvements: -0.07 meV, -0.05 meV
  #     hydro 4 f 8.8
  #     hydro 2 p 1.2
  
  -----------------------------------------------------------------------
  Completed first pass over input file control.in .
  -----------------------------------------------------------------------
  
  
  -----------------------------------------------------------------------
  Parsing geometry.in (first pass over file, find array dimensions only).
  The contents of geometry.in will be repeated verbatim below
  unless switched off by setting 'verbatim_writeout .false.' .
  in the first line of geometry.in .
  -----------------------------------------------------------------------
  
  atom   0.0   0.0   0.0   Ca
  constrain_relaxation .true.
  atom   -0.4272   -2.2160   -1.7062   O
  atom   -0.3090   -1.6202   -2.8100   C
  atom    0.9232   -1.6301   -3.4582   O
  atom   -1.5006   -0.9505   -3.4402   C
  atom   -2.2230   -0.1595   -2.4411   N
  atom   -2.4169   -1.9940   -4.0898   C
  atom    1.0494   -1.1835   -4.3586   H
  atom   -1.1408   -0.2616   -4.2361   H
  atom   -2.7036   -0.7996   -1.7667   H
  atom   -2.9682    0.3906   -2.9275   H
  atom   -2.7975   -2.7110   -3.3308   H
  atom   -3.2815   -1.4918   -4.5733   H
  atom   -1.8602   -2.5575   -4.8691   H
  
  -----------------------------------------------------------------------
  Completed first pass over input file geometry.in .
  -----------------------------------------------------------------------
  

  Basic array size parameters:
  | Number of species                 :        6
  | Number of atoms                   :       14
  | Max. basis fn. angular momentum   :        2
  | Max. atomic/ionic basis occupied n:        4
  | Max. number of basis fn. types    :        3
  | Max. radial fns per species/type  :        6
  | Max. logarithmic grid size        :     1376
  | Max. radial integration grid size :       47
  | Max. angular integration grid size:      194
  | Max. angular grid division number :        8
  | Radial grid for Hartree potential :     1376
  | Number of spin channels           :        1

------------------------------------------------------------
          Reading file control.in.
------------------------------------------------------------
  XC: Using PBE gradient-corrected functionals.
  Scalar relativistic treatment of kinetic energy: on-site free-atom approximation to ZORA.
  Charged system requested: Charge =   0.100000E+01.
  Convergence accuracy of self-consistent charge density:  0.1000E-02
  Convergence accuracy of sum of eigenvalues:  0.1000E-01
  Convergence accuracy of total energy:  0.1000E-04
  Convergence accuracy of forces:  0.5000E-02
  Maximum number of s.-c. iterations  :  1000
  Geometry relaxation: Modified BFGS - TRM (trust radius method, i.e., trusted quadratic extrapolation).
  Convergence accuracy for geometry relaxation: Maximum force <   0.500000E-01 eV/A.
 
  Reading configuration options for species H                   .
  | Found nuclear charge :   1.0000
  | Found atomic mass :    1.00794000000000      amu
  | Found l_max for Hartree potential  :   3
  | Found cutoff potl. onset [A], width [A], scale factor :    3.00000    1.50000    1.00000
  | Threshold for basis-dependent cutoff potential is   0.100000E-03
  | Found data for basic radial integration grid :    24 points, outermost radius =    5.000 A
  | Found multiplier for basic radial grid :   1
  | Found angular grid specification: user-specified.
  | Specified grid contains     3 separate shells.
  | Check grid settings after all constraints further below.
  | Found free-atom valence shell :  1 s   1.000
  | Found free-ion valence shell :  1 s   0.500
  | Found hydrogenic basis function :  2 s   2.100
  | Found hydrogenic basis function :  2 p   3.500
  Species H                   : Missing cutoff potential type.
  Defaulting to exp(1/x)/(1-x)^2 type cutoff potential.
  Species H : No 'logarithmic' tag. Using default grid for free atom:
  | Default logarithmic grid data [bohr] : 0.1000E-03 0.1000E+03 0.1012E+01
  Species H : On-site basis accuracy parameter (for Gram-Schmidt orthonormalisation) not specified.
  Using default value basis_acc =  0.1000000E-03.
  Species H                   : Using default innermost maximum threshold i_radial=  2 for radial functions.
  Species H                   : Default cutoff onset for free atom density etc. : 0.30000000E+01 AA.
  Species H                   : Basic radial grid will be enhanced according to radial_multiplier =   1, to contain    24 grid points.
 
  Reading configuration options for species O                   .
  | Found nuclear charge :   8.0000
  | Found atomic mass :    15.9994000000000      amu
  | Found l_max for Hartree potential  :   3
  | Found cutoff potl. onset [A], width [A], scale factor :    3.00000    1.50000    1.00000
  | Threshold for basis-dependent cutoff potential is   0.100000E-03
  | Found data for basic radial integration grid :    36 points, outermost radius =    5.000 A
  | Found multiplier for basic radial grid :   1
  | Found angular grid specification: user-specified.
  | Specified grid contains     4 separate shells.
  | Check grid settings after all constraints further below.
  | Found free-atom valence shell :  2 s   2.000
  | Found free-atom valence shell :  2 p   4.000
  | Found free-ion valence shell :  2 s   1.000
  | Found free-ion valence shell :  2 p   3.000
  | Found hydrogenic basis function :  2 p   1.800
  | Found hydrogenic basis function :  3 d   7.600
  | Found hydrogenic basis function :  3 s   6.400
  Species O                   : Missing cutoff potential type.
  Defaulting to exp(1/x)/(1-x)^2 type cutoff potential.
  Species O : No 'logarithmic' tag. Using default grid for free atom:
  | Default logarithmic grid data [bohr] : 0.1000E-03 0.1000E+03 0.1012E+01
  Species O : On-site basis accuracy parameter (for Gram-Schmidt orthonormalisation) not specified.
  Using default value basis_acc =  0.1000000E-03.
  Species O                   : Using default innermost maximum threshold i_radial=  2 for radial functions.
  Species O                   : Default cutoff onset for free atom density etc. : 0.30000000E+01 AA.
  Species O                   : Basic radial grid will be enhanced according to radial_multiplier =   1, to contain    36 grid points.
 
  Reading configuration options for species C                   .
  | Found nuclear charge :   6.0000
  | Found atomic mass :    12.0107000000000      amu
  | Found l_max for Hartree potential  :   3
  | Found cutoff potl. onset [A], width [A], scale factor :    3.00000    1.50000    1.00000
  | Threshold for basis-dependent cutoff potential is   0.100000E-03
  | Found data for basic radial integration grid :    34 points, outermost radius =    5.000 A
  | Found multiplier for basic radial grid :   1
  | Found angular grid specification: user-specified.
  | Specified grid contains     4 separate shells.
  | Check grid settings after all constraints further below.
  | Found free-atom valence shell :  2 s   2.000
  | Found free-atom valence shell :  2 p   2.000
  | Found free-ion valence shell :  2 s   1.000
  | Found free-ion valence shell :  2 p   1.000
  | Found hydrogenic basis function :  2 p   1.700
  | Found hydrogenic basis function :  3 d   6.000
  | Found hydrogenic basis function :  2 s   4.900
  Species C                   : Missing cutoff potential type.
  Defaulting to exp(1/x)/(1-x)^2 type cutoff potential.
  Species C : No 'logarithmic' tag. Using default grid for free atom:
  | Default logarithmic grid data [bohr] : 0.1000E-03 0.1000E+03 0.1012E+01
  Species C : On-site basis accuracy parameter (for Gram-Schmidt orthonormalisation) not specified.
  Using default value basis_acc =  0.1000000E-03.
  Species C                   : Using default innermost maximum threshold i_radial=  2 for radial functions.
  Species C                   : Default cutoff onset for free atom density etc. : 0.30000000E+01 AA.
  Species C                   : Basic radial grid will be enhanced according to radial_multiplier =   1, to contain    34 grid points.
 
  Reading configuration options for species N                   .
  | Found nuclear charge :   7.0000
  | Found atomic mass :    14.0067000000000      amu
  | Found l_max for Hartree potential  :   3
  | Found cutoff potl. onset [A], width [A], scale factor :    3.00000    1.50000    1.00000
  | Threshold for basis-dependent cutoff potential is   0.100000E-03
  | Found data for basic radial integration grid :    35 points, outermost radius =    5.000 A
  | Found multiplier for basic radial grid :   1
  | Found angular grid specification: user-specified.
  | Specified grid contains     4 separate shells.
  | Check grid settings after all constraints further below.
  | Found free-atom valence shell :  2 s   2.000
  | Found free-atom valence shell :  2 p   3.000
  | Found free-ion valence shell :  2 s   1.000
  | Found free-ion valence shell :  2 p   2.000
  | Found hydrogenic basis function :  2 p   1.800
  | Found hydrogenic basis function :  3 d   6.800
  | Found hydrogenic basis function :  3 s   5.800
  Species N                   : Missing cutoff potential type.
  Defaulting to exp(1/x)/(1-x)^2 type cutoff potential.
  Species N : No 'logarithmic' tag. Using default grid for free atom:
  | Default logarithmic grid data [bohr] : 0.1000E-03 0.1000E+03 0.1012E+01
  Species N : On-site basis accuracy parameter (for Gram-Schmidt orthonormalisation) not specified.
  Using default value basis_acc =  0.1000000E-03.
  Species N                   : Using default innermost maximum threshold i_radial=  2 for radial functions.
  Species N                   : Default cutoff onset for free atom density etc. : 0.30000000E+01 AA.
  Species N                   : Basic radial grid will be enhanced according to radial_multiplier =   1, to contain    35 grid points.
 
  Reading configuration options for species Na                  .
  | Found nuclear charge :  11.0000
  | Found atomic mass :    22.9897692800000      amu
  | Found l_max for Hartree potential  :   3
  | Found cutoff potl. onset [A], width [A], scale factor :    4.00000    1.50000    1.00000
  | Threshold for basis-dependent cutoff potential is   0.100000E-03
  | Found data for basic radial integration grid :    40 points, outermost radius =    5.500 A
  | Found multiplier for basic radial grid :   1
  | Found angular grid specification: user-specified.
  | Specified grid contains     3 separate shells.
  | Check grid settings after all constraints further below.
  | Found free-atom valence shell :  3 s   1.000
  | Found free-atom valence shell :  2 p   6.000
  | Found free-ion valence shell :  2 s   2.000
  | Found free-ion valence shell :  2 p   6.000
  | Found hydrogenic basis function :  2 p   1.200
  | Found hydrogenic basis function :  3 s   1.800
  | Found hydrogenic basis function :  3 d   3.800
  Species Na                  : Missing cutoff potential type.
  Defaulting to exp(1/x)/(1-x)^2 type cutoff potential.
  Species Na: No 'logarithmic' tag. Using default grid for free atom:
  | Default logarithmic grid data [bohr] : 0.1000E-03 0.1000E+03 0.1012E+01
  Species Na: On-site basis accuracy parameter (for Gram-Schmidt orthonormalisation) not specified.
  Using default value basis_acc =  0.1000000E-03.
  Species Na                  : Using default innermost maximum threshold i_radial=  2 for radial functions.
  Species Na                  : Default cutoff onset for free atom density etc. : 0.40000000E+01 AA.
  Species Na                  : Basic radial grid will be enhanced according to radial_multiplier =   1, to contain    40 grid points.
 
  Reading configuration options for species Ca                  .
  | Found nuclear charge :  20.0000
  | Found atomic mass :    40.0780000000000      amu
  | Found l_max for Hartree potential  :   3
  | Found cutoff potl. onset [A], width [A], scale factor :    4.00000    1.50000    1.00000
  | Threshold for basis-dependent cutoff potential is   0.100000E-03
  | Found data for basic radial integration grid :    47 points, outermost radius =    5.500 A
  | Found multiplier for basic radial grid :   1
  | Found angular grid specification: user-specified.
  | Specified grid contains     3 separate shells.
  | Check grid settings after all constraints further below.
  | Found free-atom valence shell :  4 s   2.000
  | Found free-atom valence shell :  3 p   6.000
  | Found free-ion valence shell :  4 s   1.000
  | Found free-ion valence shell :  3 p   6.000
  | Found ionic basis function :  3 d , default cutoff radius.
  | Found ionic basis function :  4 p , default cutoff radius.
  | Found hydrogenic basis function :  3 d   2.300
  | Found ionic basis function :  4 s , default cutoff radius.
  Species Ca                  : Missing cutoff potential type.
  Defaulting to exp(1/x)/(1-x)^2 type cutoff potential.
  Species Ca: No 'logarithmic' tag. Using default grid for free atom:
  | Default logarithmic grid data [bohr] : 0.1000E-03 0.1000E+03 0.1012E+01
  | Will include ionic basis functions of  1.0-fold positive Ca                   ion.
  Species Ca: On-site basis accuracy parameter (for Gram-Schmidt orthonormalisation) not specified.
  Using default value basis_acc =  0.1000000E-03.
  Species Ca                  : Using default innermost maximum threshold i_radial=  2 for radial functions.
  Species Ca                  : Default cutoff onset for free atom density etc. : 0.40000000E+01 AA.
  Species Ca                  : Basic radial grid will be enhanced according to radial_multiplier =   1, to contain    47 grid points.
 
  Finished reading input file 'control.in'. Consistency checks are next.
 
  Target number of points in a grid batch is not set. Defaulting to  100
  Method for grid partitioning is not set. Defaulting to parallel hash+maxmin partitioning.
  Batch size limit is not set. Defaulting to    200
  By default, will store active basis functions for each batch.
  If in need of memory, prune_basis_once .false. can be used to disable this option.
  communication_type for Hartree potential was not specified.
  Defaulting to calc_hartree .
  Defaulting to Pulay charge density mixer.
  Pulay mixer: Number of relevant iterations not set.
  Defaulting to    8 iterations.
  Pulay mixer: Number of initial linear mixing iterations not set.
  Defaulting to    0 iterations.
  Work space size for distributed Hartree potential not set.
  Defaulting to   0.200000E+03 MB.
  Mixing parameter for charge density mixing has not been set.
  Using default: charge_mix_param =     0.2000.
  Algorithm-dependent basis array size parameters:
  | n_max_pulay                         :        8
  No maximum number of relaxation steps, defaulting to     1000
  Default initial Hessian is Lindh matrix (thres = 15.00) plus  0.200000E+01 eV/A^2 times unity.
  No maximum energy tolerance for TRM/BFGS moves, defaulting to   0.200000E-03
  No harmonic length scale. Defaulting to   0.250000E-01 A.
  No trust radius initializer. Defaulting to   0.200000E+00 A.
  Handling of forces: Unphysical translation and rotation will be removed from forces.
  No accuracy limit for integral partition fn. given. Defaulting to  0.1000E-14.
  No threshold value for u(r) in integrations given. Defaulting to  0.1000E-05.
  No occupation type (smearing scheme) given. Defaulting to Gaussian broadening, width =  0.1000E-01 eV.
  No accuracy for occupation numbers given. Defaulting to  0.1000E-07.
  No threshold value for occupation numbers given. Defaulting to  0.0000E+00.
  No accuracy for fermi level given. Defaulting to  0.1000E-19.
  Maximum # of iterations to find E_F not set. Defaulting to  200.
  Preferred method for the eigenvalue solver ('KS_method') not specified in 'control.in'.
  Calling blacs routine to test compilation state
  Since scalapack support is enabled, defaulting to 'elpa'.
  Will not use alltoall communication since running on < 1024 CPUs.
  Threshold for basis singularities not set.
  Default threshold for basis singularities:  0.1000E-04
  partition_type (choice of integration weights) for integrals was not specified.
  | Using a version of the partition function of Stratmann and coworkers ('stratmann_smoother').
  | At each grid point, the set of atoms used to build the partition table is smoothly restricted to
  | only those atoms whose free-atom density would be non-zero at that grid point.
  Partitioning for Hartree potential was not defined. Using partition_type for integrals.
  | Adjusted default value of keyword multip_moments_threshold to:       0.10000000E-11
  | This value may affect high angular momentum components of the Hartree potential in periodic systems.
  Spin handling was not defined in control.in. Defaulting to unpolarized case.
  No q(lm)/r^(l+1) cutoff set for long-range Hartree potential.
  | Using default value of  0.100000E-09 .
  | Verify using the multipole_threshold keyword.
  Defaulting to new monopole extrapolation.
  Density update method: automatic selection selected.
  Geometry relaxation: A file "geometry.in.next_step" is written out by default after each step.
  | This file contains the geometry of the current relaxation step as well as
  | the current Hessian matrix needed to restart the relaxation algorithm.
  | If you do not want part or all of this information, use the keywords
  | "write_restart_geometry" or "hessian_to_restart_geometry" to switch the output off.
------------------------------------------------------------


------------------------------------------------------------
          Reading geometry description geometry.in.
------------------------------------------------------------
  Found relaxation constraint for atom      1: All coordinates fixed.
 * Warning: Initial charge and total charge of the system are inconsistent.
 * Selected charge in control.in:     1.0000* Sum of initial charges in geometry.in:     0.0000
  Input structure read successfully.
  The structure contains       14 atoms,  and a total of         67.000 electrons.

  Input geometry:
  | No unit cell requested.
  | Atomic structure:
  |       Atom                x [A]            y [A]            z [A]
  |    1: Species Ca             0.000000         0.000000         0.000000
  |    2: Species O             -0.427200        -2.216000        -1.706200
  |    3: Species C             -0.309000        -1.620200        -2.810000
  |    4: Species O              0.923200        -1.630100        -3.458200
  |    5: Species C             -1.500600        -0.950500        -3.440200
  |    6: Species N             -2.223000        -0.159500        -2.441100
  |    7: Species C             -2.416900        -1.994000        -4.089800
  |    8: Species H              1.049400        -1.183500        -4.358600
  |    9: Species H             -1.140800        -0.261600        -4.236100
  |   10: Species H             -2.703600        -0.799600        -1.766700
  |   11: Species H             -2.968200         0.390600        -2.927500
  |   12: Species H             -2.797500        -2.711000        -3.330800
  |   13: Species H             -3.281500        -1.491800        -4.573300
  |   14: Species H             -1.860200        -2.557500        -4.869100
  |

  | The smallest distance between any two atoms is         1.01296503 AA.
  |
  | The first atom of this pair is atom number                      4 .
  | The second atom of this pair is atom number                     8 .

  Number of empty states per atom not set in control.in - providing a guess from actual geometry.
  | Total number of empty states used during s.c.f. cycle:       32
  If you use a very high smearing, use empty_states (per atom!) in control.in to increase this value.

  Structure-dependent array size parameters: 
  | Maximum number of distinct radial functions  :       38
  | Maximum number of basis functions            :      143
  | Number of Kohn-Sham states (occupied + empty):       66
------------------------------------------------------------

------------------------------------------------------------
          Preparing all fixed parts of the calculation.
------------------------------------------------------------
  Determining machine precision:
    2.225073858507201E-308
  Setting up grids for atomic and cluster calculations.

  Creating wave function, potential, and density for free atoms.

  Species: H

  List of occupied orbitals and eigenvalues:
    n    l              occ      energy [Ha]    energy [eV]
    1    0           1.0000        -0.235641        -6.4121


  Species: O

  List of occupied orbitals and eigenvalues:
    n    l              occ      energy [Ha]    energy [eV]
    1    0           2.0000       -18.925686      -514.9941
    2    0           2.0000        -0.879296       -23.9269
    2    1           4.0000        -0.330530        -8.9942


  Species: C

  List of occupied orbitals and eigenvalues:
    n    l              occ      energy [Ha]    energy [eV]
    1    0           2.0000       -10.041502      -273.2432
    2    0           2.0000        -0.499644       -13.5960
    2    1           2.0000        -0.187914        -5.1134


  Species: N

  List of occupied orbitals and eigenvalues:
    n    l              occ      energy [Ha]    energy [eV]
    1    0           2.0000       -14.141223      -384.8023
    2    0           2.0000        -0.680091       -18.5062
    2    1           3.0000        -0.257563        -7.0086


  Species: Na

  List of occupied orbitals and eigenvalues:
    n    l              occ      energy [Ha]    energy [eV]
    1    0           2.0000       -38.022277     -1034.6388
    2    0           2.0000        -2.069032       -56.3012
    3    0           1.0000        -0.087110        -2.3704
    2    1           6.0000        -1.037053       -28.2196


  Species: Ca

  List of occupied orbitals and eigenvalues:
    n    l              occ      energy [Ha]    energy [eV]
    1    0           2.0000      -145.816700     -3967.8743
    2    0           2.0000       -15.218532      -414.1173
    3    0           2.0000        -1.713477       -46.6261
    4    0           2.0000        -0.125254        -3.4083
    2    1           6.0000       -12.289096      -334.4033
    3    1           6.0000        -1.012303       -27.5462

  Creating fixed part of basis set: Ionic, confined, hydrogenic.
 
  H                    hydrogenic:
 
  List of hydrogenic basis orbitals: 
    n    l      effective z      eigenvalue [eV]  inner max. [A]     outer max. [A]     outer radius [A]   
    2    0         2.100000       -14.8927           0.193243           1.317208           4.105953
    2    1         3.500000       -41.6669           0.602369           0.602369           3.723403
 
 
  O                    hydrogenic:
 
  List of hydrogenic basis orbitals: 
    n    l      effective z      eigenvalue [eV]  inner max. [A]     outer max. [A]     outer radius [A]   
    2    1         1.800000       -10.8785           1.164242           1.164242           4.101052
    3    2         7.600000       -87.3180           0.624125           0.624125           3.251020
    3    0         6.400000       -61.9206           0.061167           1.081902           3.953371
 
 
  C                    hydrogenic:
 
  List of hydrogenic basis orbitals: 
    n    l      effective z      eigenvalue [eV]  inner max. [A]     outer max. [A]     outer radius [A]   
    2    1         1.700000        -9.6348           1.215618           1.215618           4.127827
    3    2         6.000000       -54.4223           0.792453           0.792453           3.835889
    2    0         4.900000       -81.6679           0.082559           0.562749           3.078220
 
 
  N                    hydrogenic:
 
  List of hydrogenic basis orbitals: 
    n    l      effective z      eigenvalue [eV]  inner max. [A]     outer max. [A]     outer radius [A]   
    2    1         1.800000       -10.8785           1.163144           1.163144           4.097185
    3    2         6.800000       -69.9026           0.704619           0.704619           3.538137
    3    0         5.800000       -50.8531           0.067388           1.191934           4.047402
 
 
  Na                   hydrogenic:
 
  List of hydrogenic basis orbitals: 
    n    l      effective z      eigenvalue [eV]  inner max. [A]     outer max. [A]     outer radius [A]   
    2    1         1.200000        -4.7043           1.699681           1.699681           5.107393
    3    0         1.800000        -2.7647           0.215330           3.132057           5.107393
    3    2         3.800000       -21.8265           1.252092           1.252092           5.045336
 
 
  Ca                   ion:

  List of free ionic orbitals and eigenvalues:
    n    l      energy [Ha]    energy [eV]
    1    0      -146.094633     -3975.4372
    2    0       -15.493962      -421.6121
    3    0        -1.984196       -53.9927
    4    0        -0.329457        -8.9650
    2    1       -12.564632      -341.9010
    3    1        -1.281792       -34.8793


  List of ionic basis orbitals and eigenvalues:
    n    l      energy [Ha]    energy [eV]    outer radius [A]
    3    2        -0.306329        -8.3356       5.051329
    4    1        -0.211138        -5.7453       5.113461
    4    0        -0.327939        -8.9237       5.051329

 
  Ca                   hydrogenic:
 
  List of hydrogenic basis orbitals: 
    n    l      effective z      eigenvalue [eV]  inner max. [A]     outer max. [A]     outer radius [A]   
    3    2         2.300000        -7.7550           1.994818           1.994818           5.113461
 

  Adding cutoff potential to free-atom effective potential.
  Creating atomic-like basis functions for current effective potential.

  Species H                   :

  List of atomic basis orbitals and eigenvalues:
    n    l      energy [Ha]    energy [eV]    outer radius [A]
    1    0        -0.235641        -6.4121       4.056063


  Species O                   :

  List of atomic basis orbitals and eigenvalues:
    n    l      energy [Ha]    energy [eV]    outer radius [A]
    1    0       -18.925686      -514.9941       1.415765
    2    0        -0.879296       -23.9269       3.953371
    2    1        -0.330530        -8.9942       4.051222


  Species C                   :

  List of atomic basis orbitals and eigenvalues:
    n    l      energy [Ha]    energy [eV]    outer radius [A]
    1    0       -10.041502      -273.2432       1.934409
    2    0        -0.499644       -13.5960       4.028125
    2    1        -0.187914        -5.1134       4.077671


  Species N                   :

  List of atomic basis orbitals and eigenvalues:
    n    l      energy [Ha]    energy [eV]    outer radius [A]
    1    0       -14.141223      -384.8023       1.637919
    2    0        -0.680091       -18.5062       3.998224
    2    1        -0.257563        -7.0086       4.047402


  Species Na                  :

  List of atomic basis orbitals and eigenvalues:
    n    l      energy [Ha]    energy [eV]    outer radius [A]
    1    0       -38.022277     -1034.6388       1.017136
    2    0        -2.069032       -56.3012       4.200021
    3    0        -0.087110        -2.3704       5.107393
    2    1        -1.037053       -28.2196       4.746176


  Species Ca                  :

  List of atomic basis orbitals and eigenvalues:
    n    l      energy [Ha]    energy [eV]    outer radius [A]
    1    0      -145.816700     -3967.8743       0.539280
    2    0       -15.218532      -414.1173       1.681024
    3    0        -1.713477       -46.6261       4.580699
    4    0        -0.125254        -3.4083       5.113461
    2    1       -12.289096      -334.4033       1.808961
    3    1        -1.012303       -27.5462       4.810262

  Assembling full basis from fixed parts.
  | Species H :   atomic orbital   1 s accepted.
  | Species H :    hydro orbital   2 s accepted.
  | Species H :    hydro orbital   2 p accepted.
  | Species O :   atomic orbital   1 s accepted.
  | Species O :   atomic orbital   2 s accepted.
  | Species O :    hydro orbital   3 s accepted.
  | Species O :   atomic orbital   2 p accepted.
  | Species O :    hydro orbital   2 p accepted.
  | Species O :    hydro orbital   3 d accepted.
  | Species C :   atomic orbital   1 s accepted.
  | Species C :    hydro orbital   2 s accepted.
  | Species C :   atomic orbital   2 s accepted.
  | Species C :   atomic orbital   2 p accepted.
  | Species C :    hydro orbital   2 p accepted.
  | Species C :    hydro orbital   3 d accepted.
  | Species N :   atomic orbital   1 s accepted.
  | Species N :   atomic orbital   2 s accepted.
  | Species N :    hydro orbital   3 s accepted.
  | Species N :   atomic orbital   2 p accepted.
  | Species N :    hydro orbital   2 p accepted.
  | Species N :    hydro orbital   3 d accepted.
  | Species Na :   atomic orbital   1 s accepted.
  | Species Na :   atomic orbital   2 s accepted.
  | Species Na :   atomic orbital   3 s accepted.
  | Species Na :    hydro orbital   3 s accepted.
  | Species Na :   atomic orbital   2 p accepted.
  | Species Na :    hydro orbital   2 p accepted.
  | Species Na :    hydro orbital   3 d accepted.
  | Species Ca :   atomic orbital   1 s accepted.
  | Species Ca :   atomic orbital   2 s accepted.
  | Species Ca :   atomic orbital   3 s accepted.
  | Species Ca :    ionic orbital   4 s accepted.
  | Species Ca :   atomic orbital   4 s accepted.
  | Species Ca :   atomic orbital   2 p accepted.
  | Species Ca :   atomic orbital   3 p accepted.
  | Species Ca :    ionic orbital   4 p accepted.
  | Species Ca :    ionic orbital   3 d accepted.
  | Species Ca :    hydro orbital   3 d accepted.
 
  Basis size parameters after reduction:
  | Total number of radial functions:       38
  | Total number of basis functions :      143
 
  Testing on-site integration grid accuracy.
  |  Species  Function  <phi|h_atom|phi> (log., in eV)  <phi|h_atom|phi> (rad., in eV)
           1        1                 -6.4162218543                 -6.4141874764
           1        2                 14.2629426856                 14.2740263446
           1        3                 25.3060316045                 25.3061745791
           2        4               -514.9941216383               -514.9940152912
           2        5                -23.9268789556                -23.9268670202
           2        6                 17.5370512221                 17.5371079820
           2        7                 -8.9948778850                 -8.9942897818
           2        8                  9.0934837212                  9.1359000456 ***
           2        9                 45.8654630780                 45.8654050057
           3       10               -273.2431604319               -273.2431304843
           3       11                -10.6127287579                -10.6123689972
           3       12                 17.6978683578                 17.7012113313
           3       13                 -5.1190123953                 -5.1138945774
           3       14                  9.8798729865                  9.9427570391 ***
           3       15                 27.5839636907                 27.5839723172
           4       16               -384.8022615505               -384.8022002159
           4       17                -18.5063031924                -18.5062262389
           4       18                 15.4149749124                 15.4157450175
           4       19                 -7.0105885112                 -7.0088509384
           4       20                  9.7201544818                  9.7672564673 ***
           4       21                 36.0101697918                 36.0103463654
           5       22              -1034.6388015345              -1034.6384291541
           5       23                -56.3012341042                -56.3012327590
           5       24                 -2.3917926930                 -2.3919758404
           5       25                  4.7971360279                  4.7797727319
           5       26                -28.2196408420                -28.2196407991
           5       27                  0.6522078092                  0.6519032012
           5       28                 10.4290155204                 10.4290902731
           6       29              -3967.8742986605              -3967.8711112323
           6       30               -414.1173184765               -414.1172913027
           6       31                -46.6260901861                -46.6260897515
           6       32                 -3.3009720869                 -3.3082195928
           6       33                  5.0462704491                  4.8938820551 ***
           6       34               -334.4033183962               -334.4033187644
           6       35                -27.5461560330                -27.5461560108
           6       36                 -0.6301050986                 -0.6564048653
           6       37                 -1.4261209312                 -1.4269666967
           6       38                  4.9481320968                  4.9020497815 ***
 * Note: Onsite integrals marked "***" above are less accurate than
 * onsite_accuracy_threshold =    0.03000 eV. Usually, this is harmless.
 * When in doubt, tighten the "radial" and/or "radial_multiplier" flags to check.

  Preparing densities etc. for the partition functions (integrals / Hartree potential).

  Preparations completed.
  max(cpu_time)          :      0.408 s.
  Wall clock time (cpu1) :      0.405 s.
------------------------------------------------------------

------------------------------------------------------------
          Begin self-consistency loop: Initialization.

          Date     :  20170702, Time     :  200758.261
------------------------------------------------------------

  Initializing index lists of integration centers etc. from given atomic structure:
  | Number of centers in hartree potential         :        14
  | Number of centers in hartree multipole         :        14
  | Number of centers in electron density summation:        14
  | Number of centers in basis integrals           :        14
  | Number of centers in integrals                 :        14
  | Number of centers in hamiltonian               :        14
  Initializing relaxation algorithms.
  Using modified Scalapack Eigenvalue solver (ELPA)
  * Using 64 tasks for Scalapack Eigenvalue solver.
  Detailed listing of tasks and assigned k-points:
  (for non-periodic systems, the "k-point" denotes an internal label only)
   Task     0 k-point     1 on eos337
   Task     1 k-point     1 on eos337
   Task     2 k-point     1 on eos337
   Task     3 k-point     1 on eos337
   Task     4 k-point     1 on eos337
   Task     5 k-point     1 on eos337
   Task     6 k-point     1 on eos337
   Task     7 k-point     1 on eos337
   Task     8 k-point     1 on eos337
   Task     9 k-point     1 on eos337
   Task    10 k-point     1 on eos337
   Task    11 k-point     1 on eos337
   Task    12 k-point     1 on eos337
   Task    13 k-point     1 on eos337
   Task    14 k-point     1 on eos337
   Task    15 k-point     1 on eos337
   Task    16 k-point     1 on eos337
   Task    17 k-point     1 on eos337
   Task    18 k-point     1 on eos337
   Task    19 k-point     1 on eos337
   Task    20 k-point     1 on eos337
   Task    21 k-point     1 on eos337
   Task    22 k-point     1 on eos337
   Task    23 k-point     1 on eos337
   Task    24 k-point     1 on eos337
   Task    25 k-point     1 on eos337
   Task    26 k-point     1 on eos337
   Task    27 k-point     1 on eos337
   Task    28 k-point     1 on eos337
   Task    29 k-point     1 on eos337
   Task    30 k-point     1 on eos337
   Task    31 k-point     1 on eos337
   Task    32 k-point     1 on eos068
   Task    33 k-point     1 on eos068
   Task    34 k-point     1 on eos068
   Task    35 k-point     1 on eos068
   Task    36 k-point     1 on eos068
   Task    37 k-point     1 on eos068
   Task    38 k-point     1 on eos068
   Task    39 k-point     1 on eos068
   Task    40 k-point     1 on eos068
   Task    41 k-point     1 on eos068
   Task    42 k-point     1 on eos068
   Task    43 k-point     1 on eos068
   Task    44 k-point     1 on eos068
   Task    45 k-point     1 on eos068
   Task    46 k-point     1 on eos068
   Task    47 k-point     1 on eos068
   Task    48 k-point     1 on eos068
   Task    49 k-point     1 on eos068
   Task    50 k-point     1 on eos068
   Task    51 k-point     1 on eos068
   Task    52 k-point     1 on eos068
   Task    53 k-point     1 on eos068
   Task    54 k-point     1 on eos068
   Task    55 k-point     1 on eos068
   Task    56 k-point     1 on eos068
   Task    57 k-point     1 on eos068
   Task    58 k-point     1 on eos068
   Task    59 k-point     1 on eos068
   Task    60 k-point     1 on eos068
   Task    61 k-point     1 on eos068
   Task    62 k-point     1 on eos068
   Task    63 k-point     1 on eos068
  Tasks:    64 split into      8 X      8 BLACS grid
  Calculating blocksize based on n_basis =          143  max_nprow =            8  max_npcol =            8
  Scalapack blocksize set to:           16
  Required Scalapack workspace - INTEGER:            1  REAL:             1
  Partitioning the integration grid into batches with parallel hashing+maxmin method.
  | Number of batches:      654
  | Maximal batch size:     194
  | Minimal batch size:       1
  | Average batch size:      72.820
  | Standard deviation of batch sizes:      23.778

  Integration load balanced across    64 MPI tasks.
  Work distribution over tasks is as follows:
  Task     0 has        742 integration points.
  Task     1 has        713 integration points.
  Task     2 has        701 integration points.
  Task     3 has        727 integration points.
  Task     4 has        745 integration points.
  Task     5 has        699 integration points.
  Task     6 has        740 integration points.
  Task     7 has        705 integration points.
  Task     8 has        740 integration points.
  Task     9 has        704 integration points.
  Task    10 has        707 integration points.
  Task    11 has        700 integration points.
  Task    12 has        707 integration points.
  Task    13 has        759 integration points.
  Task    14 has        709 integration points.
  Task    15 has        758 integration points.
  Task    16 has        716 integration points.
  Task    17 has        741 integration points.
  Task    18 has        764 integration points.
  Task    19 has        709 integration points.
  Task    20 has        745 integration points.
  Task    21 has        745 integration points.
  Task    22 has        742 integration points.
  Task    23 has        744 integration points.
  Task    24 has        703 integration points.
  Task    25 has        736 integration points.
  Task    26 has        750 integration points.
  Task    27 has        761 integration points.
  Task    28 has        761 integration points.
  Task    29 has        767 integration points.
  Task    30 has        760 integration points.
  Task    31 has        724 integration points.
  Task    32 has        763 integration points.
  Task    33 has        741 integration points.
  Task    34 has        755 integration points.
  Task    35 has        777 integration points.
  Task    36 has        762 integration points.
  Task    37 has        711 integration points.
  Task    38 has        761 integration points.
  Task    39 has        702 integration points.
  Task    40 has        722 integration points.
  Task    41 has        770 integration points.
  Task    42 has        759 integration points.
  Task    43 has        748 integration points.
  Task    44 has        872 integration points.
  Task    45 has        761 integration points.
  Task    46 has        758 integration points.
  Task    47 has        774 integration points.
  Task    48 has        747 integration points.
  Task    49 has        783 integration points.
  Task    50 has        774 integration points.
  Task    51 has        803 integration points.
  Task    52 has        707 integration points.
  Task    53 has        734 integration points.
  Task    54 has        753 integration points.
  Task    55 has        706 integration points.
  Task    56 has        826 integration points.
  Task    57 has        757 integration points.
  Task    58 has        737 integration points.
  Task    59 has        715 integration points.
  Task    60 has        760 integration points.
  Task    61 has        739 integration points.
  Task    62 has        764 integration points.
  Task    63 has        759 integration points.
  Initializing partition tables, free-atom densities, potentials, etc. across the integration grid (initialize_grid_storage).
  | initialize_grid_storage: Actual outermost partition radius vs. multipole_radius_free
  | (-- VB: in principle, multipole_radius_free should be larger, hence this output)
  | Species        1: Confinement radius =              4.500000000000000 AA, multipole_radius_free =              4.527807254260598 AA.
  | Species        1: outer_partition_radius set to              4.527807254260598 AA .
  | Species        2: Confinement radius =              4.500000000000000 AA, multipole_radius_free =              4.522403050824455 AA.
  | Species        2: outer_partition_radius set to              4.522403050824455 AA .
  | Species        3: Confinement radius =              4.500000000000000 AA, multipole_radius_free =              4.551928288069453 AA.
  | Species        3: outer_partition_radius set to              4.551928288069453 AA .
  | Species        4: Confinement radius =              4.500000000000000 AA, multipole_radius_free =              4.518138488740626 AA.
  | Species        4: outer_partition_radius set to              4.518138488740626 AA .
  | Species        5: Confinement radius =              5.500000000000000 AA, multipole_radius_free =              5.563704032673898 AA.
  | Species        5: outer_partition_radius set to              5.563704032673898 AA .
  | Species        6: Confinement radius =              5.500000000000000 AA, multipole_radius_free =              5.502630814892452 AA.
  | Species        6: outer_partition_radius set to              5.502630814892452 AA .
  | Original list of interatomic distances with          14 x         14 entries is created.
  | Net number of integration points:    47624
  | of which are non-zero points    :    42612
  Obtaining max. number of non-zero basis functions in each batch (get_n_compute_maxes).
  | Maximal number of non-zero basis functions:      136 in task     0
  | Maximal number of non-zero basis functions:      136 in task     1
  | Maximal number of non-zero basis functions:      136 in task     2
  | Maximal number of non-zero basis functions:      136 in task     3
  | Maximal number of non-zero basis functions:      136 in task     4
  | Maximal number of non-zero basis functions:      136 in task     5
  | Maximal number of non-zero basis functions:      136 in task     6
  | Maximal number of non-zero basis functions:      136 in task     7
  | Maximal number of non-zero basis functions:      136 in task     8
  | Maximal number of non-zero basis functions:      136 in task     9
  | Maximal number of non-zero basis functions:      140 in task    10
  | Maximal number of non-zero basis functions:      136 in task    11
  | Maximal number of non-zero basis functions:      136 in task    12
  | Maximal number of non-zero basis functions:      137 in task    13
  | Maximal number of non-zero basis functions:      140 in task    14
  | Maximal number of non-zero basis functions:      136 in task    15
  | Maximal number of non-zero basis functions:      135 in task    16
  | Maximal number of non-zero basis functions:      132 in task    17
  | Maximal number of non-zero basis functions:      136 in task    18
  | Maximal number of non-zero basis functions:      136 in task    19
  | Maximal number of non-zero basis functions:      136 in task    20
  | Maximal number of non-zero basis functions:      137 in task    21
  | Maximal number of non-zero basis functions:      136 in task    22
  | Maximal number of non-zero basis functions:      136 in task    23
  | Maximal number of non-zero basis functions:      136 in task    24
  | Maximal number of non-zero basis functions:      136 in task    25
  | Maximal number of non-zero basis functions:      136 in task    26
  | Maximal number of non-zero basis functions:      136 in task    27
  | Maximal number of non-zero basis functions:      136 in task    28
  | Maximal number of non-zero basis functions:      136 in task    29
  | Maximal number of non-zero basis functions:      137 in task    30
  | Maximal number of non-zero basis functions:      138 in task    31
  | Maximal number of non-zero basis functions:      135 in task    32
  | Maximal number of non-zero basis functions:      137 in task    33
  | Maximal number of non-zero basis functions:      137 in task    34
  | Maximal number of non-zero basis functions:      136 in task    35
  | Maximal number of non-zero basis functions:      137 in task    36
  | Maximal number of non-zero basis functions:      137 in task    37
  | Maximal number of non-zero basis functions:      137 in task    38
  | Maximal number of non-zero basis functions:      137 in task    39
  | Maximal number of non-zero basis functions:      136 in task    40
  | Maximal number of non-zero basis functions:      138 in task    41
  | Maximal number of non-zero basis functions:      140 in task    42
  | Maximal number of non-zero basis functions:      136 in task    43
  | Maximal number of non-zero basis functions:      135 in task    44
  | Maximal number of non-zero basis functions:      137 in task    45
  | Maximal number of non-zero basis functions:      138 in task    46
  | Maximal number of non-zero basis functions:      137 in task    47
  | Maximal number of non-zero basis functions:      140 in task    48
  | Maximal number of non-zero basis functions:      136 in task    49
  | Maximal number of non-zero basis functions:      137 in task    50
  | Maximal number of non-zero basis functions:      139 in task    51
  | Maximal number of non-zero basis functions:      136 in task    52
  | Maximal number of non-zero basis functions:      137 in task    53
  | Maximal number of non-zero basis functions:      137 in task    54
  | Maximal number of non-zero basis functions:      136 in task    55
  | Maximal number of non-zero basis functions:      141 in task    56
  | Maximal number of non-zero basis functions:      139 in task    57
  | Maximal number of non-zero basis functions:      137 in task    58
  | Maximal number of non-zero basis functions:      138 in task    59
  | Maximal number of non-zero basis functions:      138 in task    60
  | Maximal number of non-zero basis functions:      136 in task    61
  | Maximal number of non-zero basis functions:      136 in task    62
  | Maximal number of non-zero basis functions:      140 in task    63
  Selecting the method for density update.
  Loop over occupied states selected for charge density update.
  Integrating Hamiltonian matrix: batch-based integration.
  Time summed over all CPUs for integration: real work        0.603 s, elapsed        0.741 s
  Integrating overlap matrix.
  Time summed over all CPUs for integration: real work        0.203 s, elapsed        0.302 s
  Deallocating overlap matrix.

  Updating Kohn-Sham eigenvalues, eigenvectors, occupation numbers, and Fermi level.
  Solving generalized eigenproblem
  Solving real symmetric generalised eigenvalue problem by standard ScaLAPACK.
  Transforming overlap matrix with ScaLAPACK and checking for singularities.
  : Overlap matrix is nonsingular, using Cholesky decomposition
  | Lowest eigenvalue:  0.464514E-02
  Factoring overlap matrix with Cholesky decomposition
  Using Cholesky factor for transformation
  Using 1-stage real ELPA solver
  Determining occupation numbers for Kohn-Sham eigenstates.
  | Chemical potential (Fermi level) in eV                 : -.45747159E+01
  | Error in electron count due to remaining E_F inaccuracy: -.39124899E-08
  | Maximum occupation number of highest empty state:  0.00E+00

  Writing Kohn-Sham eigenvalues.

  State    Occupation    Eigenvalue [Ha]    Eigenvalue [eV]
      1       2.00000        -145.816717        -3967.87477
      2       2.00000         -19.006292         -517.18752
      3       2.00000         -18.993245         -516.83249
      4       2.00000         -15.218558         -414.11802
      5       2.00000         -14.249589         -387.75104
      6       2.00000         -12.289125         -334.40411
      7       2.00000         -12.289119         -334.40393
      8       2.00000         -12.289118         -334.40392
      9       2.00000         -10.157721         -276.40566
     10       2.00000         -10.140812         -275.94555
     11       2.00000         -10.115814         -275.26530
     12       2.00000          -1.713655          -46.63093
     13       2.00000          -1.119141          -30.45338
     14       2.00000          -1.057381          -28.77281
     15       2.00000          -1.012691          -27.55674
     16       2.00000          -1.012499          -27.55151
     17       2.00000          -1.012433          -27.54969
     18       2.00000          -0.985503          -26.81691
     19       2.00000          -0.845400          -23.00452
     20       2.00000          -0.746409          -20.31082
     21       2.00000          -0.668235          -18.18360
     22       2.00000          -0.627407          -17.07261
     23       2.00000          -0.581049          -15.81115
     24       2.00000          -0.562134          -15.29644
     25       2.00000          -0.553279          -15.05550
     26       2.00000          -0.532347          -14.48591
     27       2.00000          -0.511593          -13.92115
     28       2.00000          -0.485708          -13.21678
     29       2.00000          -0.471029          -12.81734
     30       2.00000          -0.455962          -12.40737
     31       2.00000          -0.415632          -11.30992
     32       2.00000          -0.398910          -10.85490
     33       2.00000          -0.385950          -10.50222
     34       1.00000          -0.168118           -4.57472
     35       0.00000          -0.120794           -3.28698
     36       0.00000          -0.062575           -1.70276
     37       0.00000          -0.060964           -1.65890
     38       0.00000          -0.057057           -1.55260
     39       0.00000          -0.056433           -1.53563
     40       0.00000          -0.053897           -1.46661
     41       0.00000          -0.050786           -1.38196
     42       0.00000          -0.044175           -1.20205
     43       0.00000          -0.024653           -0.67084
     44       0.00000          -0.015415           -0.41945
     45       0.00000          -0.014631           -0.39814
     46       0.00000           0.006247            0.16998
     47       0.00000           0.010725            0.29184
     48       0.00000           0.026562            0.72279
     49       0.00000           0.027350            0.74423
     50       0.00000           0.041660            1.13363
     51       0.00000           0.049743            1.35357
     52       0.00000           0.065032            1.76961
     53       0.00000           0.089689            2.44057
     54       0.00000           0.162939            4.43380
     55       0.00000           0.166251            4.52391
     56       0.00000           0.177269            4.82374
     57       0.00000           0.179135            4.87452
     58       0.00000           0.185126            5.03754
     59       0.00000           0.195504            5.31994
     60       0.00000           0.225206            6.12815
     61       0.00000           0.260643            7.09245
     62       0.00000           0.273295            7.43674
     63       0.00000           0.277326            7.54642
     64       0.00000           0.292361            7.95555
     65       0.00000           0.297127            8.08523
     66       0.00000           0.315539            8.58626

  Highest occupied state (VBM) at    -10.50222477 eV
  | Occupation number:      2.00000000

  Lowest unoccupied state (CBM) at    -4.57471591 eV
  | Occupation number:      1.00000000

  Overall HOMO-LUMO gap:      5.92750886 eV.
  Calculating total energy contributions from superposition of free atom densities.

  Total energy components:
  | Sum of eigenvalues            :        -593.60903624 Ha      -16152.92372776 eV
  | XC energy correction          :         -77.85068729 Ha       -2118.42498540 eV
  | XC potential correction       :         100.38509294 Ha        2731.61736201 eV
  | Free-atom electrostatic energy:        -434.77564664 Ha      -11830.84729204 eV
  | Hartree energy correction     :           0.00000000 Ha           0.00000000 eV
  | vdW energy correction         :           0.00000000 Ha           0.00000000 eV
  | Entropy correction            :          -0.00010367 Ha          -0.00282095 eV
  | ---------------------------
  | Total energy                  :       -1005.85027723 Ha      -27370.57864319 eV
  | Total energy, T -> 0          :       -1005.85038090 Ha      -27370.58146413 eV  <-- do not rely on this value for anything but (periodic) metals
  | Electronic free energy        :       -1005.85048457 Ha      -27370.58428508 eV

  Derived energy quantities:
  | Kinetic energy                :        1007.80789274 Ha       27423.84807153 eV
  | Electrostatic energy          :       -1935.80748269 Ha      -52676.00172932 eV
  | Energy correction for multipole
  | error in Hartree potential    :           0.00000000 Ha           0.00000000 eV
  | Sum of eigenvalues per atom                           :       -1153.78026627 eV
  | Total energy (T->0) per atom                          :       -1955.04153315 eV  <-- do not rely on this value for anything but (periodic) metals
  | Electronic free energy per atom                       :       -1955.04173465 eV
  Initialize hartree_potential_storage
  Max. number of atoms included in rho_multipole:           14

  End scf initialization - timings             :  max(cpu_time)    wall_clock(cpu1)
  | Time for scf. initialization               :        0.168 s           0.167 s
  | Boundary condition initialization          :        0.004 s           0.001 s
  | Relaxation initialization                  :        0.004 s           0.002 s
  | Integration                                :        0.020 s           0.018 s
  | Solution of K.-S. eqns.                    :        0.104 s           0.107 s
  | Grid partitioning                          :        0.020 s           0.019 s
  | Preloading free-atom quantities on grid    :        0.004 s           0.003 s
  | Free-atom superposition energy             :        0.004 s           0.002 s
  | Total energy evaluation                    :        0.004 s           0.001 s
------------------------------------------------------------

------------------------------------------------------------
          Begin self-consistency iteration #    1

  Date     :  20170702, Time     :  200758.429
------------------------------------------------------------
  Evaluating new KS density.
  Integration grid: deviation in total charge (<rho> - N_e) =  -3.912504E-09
  Pulay mixing of updated and previous charge densities.

  Evaluating partitioned Hartree potential by multipole expansion.
  | Analytical far-field extrapolation by fixed multipoles:
  | Hartree multipole sum: apparent total charge =   0.199369E+00
  Summing up the Hartree potential.
  Time summed over all CPUs for potential: real work        0.515 s, elapsed        0.545 s
  | RMS charge density error from multipole expansion :   0.784712E-02

  Integrating Hamiltonian matrix: batch-based integration.
  Time summed over all CPUs for integration: real work        0.417 s, elapsed        0.511 s

  Updating Kohn-Sham eigenvalues, eigenvectors, occupation numbers, and Fermi level.
  Solving generalized eigenproblem
  Solving real symmetric generalised eigenvalue problem by standard ScaLAPACK.
  Using Cholesky factor for transformation
  Using 1-stage real ELPA solver
  Determining occupation numbers for Kohn-Sham eigenstates.
  | Chemical potential (Fermi level) in eV                 : -.44799231E+01
  | Error in electron count due to remaining E_F inaccuracy: 0.00000000E+00
  | Maximum occupation number of highest empty state:  0.00E+00

  Writing Kohn-Sham eigenvalues.

  State    Occupation    Eigenvalue [Ha]    Eigenvalue [eV]
      1       2.00000        -145.900456        -3970.15340
      2       2.00000         -18.892548         -514.09239
      3       2.00000         -18.835951         -512.55231
      4       2.00000         -15.298928         -416.30501
      5       2.00000         -14.125201         -384.36629
      6       2.00000         -12.369903         -336.60220
      7       2.00000         -12.369862         -336.60108
      8       2.00000         -12.369766         -336.59845
      9       2.00000         -10.060400         -273.75740
     10       2.00000         -10.056951         -273.66357
     11       2.00000         -10.028465         -272.88841
     12       2.00000          -1.787385          -48.63723
     13       2.00000          -1.085810          -29.54639
     14       2.00000          -1.085499          -29.53793
     15       2.00000          -1.085035          -29.52530
     16       2.00000          -1.053190          -28.65877
     17       2.00000          -0.990661          -26.95727
     18       2.00000          -0.929631          -25.29654
     19       2.00000          -0.787036          -21.41634
     20       2.00000          -0.693791          -18.87901
     21       2.00000          -0.619964          -16.87008
     22       2.00000          -0.580735          -15.80260
     23       2.00000          -0.529302          -14.40305
     24       2.00000          -0.504319          -13.72321
     25       2.00000          -0.495226          -13.47580
     26       2.00000          -0.473500          -12.88460
     27       2.00000          -0.458974          -12.48933
     28       2.00000          -0.429427          -11.68530
     29       2.00000          -0.421601          -11.47236
     30       2.00000          -0.398489          -10.84343
     31       2.00000          -0.351702           -9.57031
     32       2.00000          -0.337966           -9.19653
     33       2.00000          -0.319649           -8.69808
     34       1.00000          -0.164634           -4.47992
     35       0.00000          -0.131699           -3.58371
     36       0.00000          -0.120566           -3.28077
     37       0.00000          -0.119629           -3.25527
     38       0.00000          -0.117542           -3.19849
     39       0.00000          -0.115837           -3.15207
     40       0.00000          -0.103412           -2.81398
     41       0.00000          -0.069892           -1.90185
     42       0.00000          -0.058674           -1.59660
     43       0.00000          -0.050042           -1.36170
     44       0.00000          -0.026367           -0.71749
     45       0.00000          -0.011803           -0.32118
[...]
  | vdW energy correction         :          -0.00558142 Ha          -0.15187818 eV
  | Entropy correction            :          -0.00010367 Ha          -0.00282095 eV
  | ---------------------------
  | Total energy                  :       -1005.56334575 Ha      -27362.77084039 eV
  | Total energy, T -> 0          :       -1005.56344942 Ha      -27362.77366134 eV  <-- do not rely on this value for anything but (periodic) metals
  | Electronic free energy        :       -1005.56355309 Ha      -27362.77648229 eV

  Derived energy quantities:
  | Kinetic energy                :        1009.42484899 Ha       27467.84768985 eV
  | Electrostatic energy          :       -1936.43675435 Ha      -52693.12508263 eV
  | Energy correction for multipole
  | error in Hartree potential    :           0.09276418 Ha           2.52424188 eV
  | Sum of eigenvalues per atom                           :       -1160.61584587 eV
  | Total energy (T->0) per atom                          :       -1954.48383295 eV  <-- do not rely on this value for anything but (periodic) metals
  | Electronic free energy per atom                       :       -1954.48403445 eV

  atomic forces [eV/Ang]:
  -----------------------
  atom #    1
   Hellmann-Feynman              : -0.437585E+00  0.395373E+01  0.334018E+01
   Ionic forces                  :  0.000000E+00  0.000000E+00  0.000000E+00
   Multipole                     :  0.621078E-01 -0.963936E-01  0.290276E-01
   Pulay + GGA                   :  0.176614E+00 -0.404326E+01 -0.383306E+01
   Van der Waals                 :  0.280982E-01  0.127791E-01  0.313885E-01
   ----------------------------------------------------------------
   Total forces(   1)            : -0.170764E+00 -0.173150E+00 -0.432459E+00
  atom #    2
   Hellmann-Feynman              :  0.486884E+01  0.274850E+01  0.118710E+02
   Ionic forces                  :  0.000000E+00  0.000000E+00  0.000000E+00
   Multipole                     :  0.127167E+01  0.482311E+00  0.187513E+01
   Pulay + GGA                   : -0.611790E+01 -0.322311E+01 -0.137417E+02
   Van der Waals                 : -0.271699E-02 -0.474335E-02 -0.203080E-02
   ----------------------------------------------------------------
   Total forces(   2)            :  0.198823E-01  0.296383E-02  0.235834E-02
  atom #    3
   Hellmann-Feynman              : -0.410520E+01  0.232680E+01  0.621905E+00
   Ionic forces                  :  0.000000E+00  0.000000E+00  0.000000E+00
   Multipole                     :  0.585819E+00 -0.297223E+00  0.270334E+00
   Pulay + GGA                   :  0.352309E+01 -0.201523E+01 -0.872568E+00
   Van der Waals                 :  0.145976E-01 -0.304728E-02 -0.902491E-02
   ----------------------------------------------------------------
   Total forces(   3)            :  0.183153E-01  0.113059E-01  0.106459E-01
  atom #    4
   Hellmann-Feynman              :  0.129218E+02 -0.528067E+01  0.253230E+01
   Ionic forces                  :  0.000000E+00  0.000000E+00  0.000000E+00
   Multipole                     :  0.106351E+01 -0.869529E+00 -0.812180E+00
   Pulay + GGA                   : -0.139951E+02  0.614647E+01 -0.167393E+01
   Van der Waals                 :  0.605441E-02  0.911530E-03  0.125675E-01
   ----------------------------------------------------------------
   Total forces(   4)            : -0.363553E-02 -0.281665E-02  0.587554E-01
  atom #    5
   Hellmann-Feynman              :  0.151024E+01 -0.180770E+00 -0.210775E+01
   Ionic forces                  :  0.000000E+00  0.000000E+00  0.000000E+00
   Multipole                     : -0.400239E+00  0.155920E+00 -0.420250E-01
   Pulay + GGA                   : -0.106845E+01  0.741187E-01  0.219505E+01
   Van der Waals                 : -0.123842E-01 -0.258150E-02 -0.228411E-01
   ----------------------------------------------------------------
   Total forces(   5)            :  0.291676E-01  0.466876E-01  0.224363E-01
  atom #    6
   Hellmann-Feynman              :  0.709391E+01  0.301606E+01  0.696506E+01
   Ionic forces                  :  0.000000E+00  0.000000E+00  0.000000E+00
   Multipole                     : -0.106418E+00 -0.118964E+00  0.347840E+00
   Pulay + GGA                   : -0.695677E+01 -0.288383E+01 -0.733034E+01
   Van der Waals                 : -0.604685E-03  0.249025E-02  0.258282E-02
   ----------------------------------------------------------------
   Total forces(   6)            :  0.301224E-01  0.157597E-01 -0.148656E-01
  atom #    7
   Hellmann-Feynman              : -0.195605E+00 -0.225849E+00 -0.876987E-01
   Ionic forces                  :  0.000000E+00  0.000000E+00  0.000000E+00
   Multipole                     : -0.287613E+00 -0.323032E+00 -0.115722E+00
   Pulay + GGA                   :  0.483728E+00  0.545254E+00  0.225362E+00
   Van der Waals                 : -0.576460E-02 -0.190574E-02 -0.645853E-02
   ----------------------------------------------------------------
   Total forces(   7)            : -0.525470E-02 -0.553174E-02  0.154823E-01
  atom #    8
   Hellmann-Feynman              : -0.175996E+00  0.679834E-02 -0.228781E+00
   Ionic forces                  :  0.000000E+00  0.000000E+00  0.000000E+00
   Multipole                     : -0.102040E+00 -0.273235E-03 -0.865410E-01
   Pulay + GGA                   :  0.285702E+00  0.204244E-01  0.315041E+00
   Van der Waals                 :  0.413340E-02  0.214390E-02  0.227070E-02
   ----------------------------------------------------------------
   Total forces(   8)            :  0.117988E-01  0.290934E-01  0.198949E-02
  atom #    9
   Hellmann-Feynman              : -0.421511E-01 -0.179584E+00  0.109132E+00
   Ionic forces                  :  0.000000E+00  0.000000E+00  0.000000E+00
   Multipole                     :  0.815834E-01  0.253371E+00 -0.806700E-01
   Pulay + GGA                   : -0.380721E-01 -0.740601E-01  0.142920E-01
   Van der Waals                 :  0.519130E-02  0.532194E-02  0.850000E-02
   ----------------------------------------------------------------
   Total forces(   9)            :  0.655154E-02  0.504902E-02  0.512541E-01
  atom #   10
   Hellmann-Feynman              : -0.846332E-01 -0.177797E-01  0.144908E-01
   Ionic forces                  :  0.000000E+00  0.000000E+00  0.000000E+00
   Multipole                     : -0.248914E-01 -0.137132E+00  0.520915E-01
   Pulay + GGA                   :  0.134644E+00  0.150629E+00 -0.243010E-01
   Van der Waals                 : -0.146439E-01 -0.199728E-02 -0.104183E-02
   ----------------------------------------------------------------
   Total forces(  10)            :  0.104754E-01 -0.628026E-02  0.412395E-01
  atom #   11
   Hellmann-Feynman              : -0.876768E-01 -0.375537E-01  0.162156E-01
   Ionic forces                  :  0.000000E+00  0.000000E+00  0.000000E+00
   Multipole                     : -0.611244E-01  0.155174E+00 -0.534016E-01
   Pulay + GGA                   :  0.178962E+00 -0.103675E+00  0.776632E-01
   Van der Waals                 : -0.717596E-02  0.115183E-02 -0.226327E-02
   ----------------------------------------------------------------
   Total forces(  11)            :  0.229851E-01  0.150969E-01  0.382140E-01
  atom #   12
   Hellmann-Feynman              :  0.613226E-01  0.143673E+00 -0.447527E-02
   Ionic forces                  :  0.000000E+00  0.000000E+00  0.000000E+00
   Multipole                     : -0.344941E-01 -0.182618E+00  0.108011E+00
   Pulay + GGA                   : -0.100829E-01  0.552676E-01 -0.807565E-01
   Van der Waals                 : -0.356549E-02 -0.380135E-02 -0.477410E-02
   ----------------------------------------------------------------
   Total forces(  12)            :  0.131801E-01  0.125220E-01  0.180047E-01
  atom #   13
   Hellmann-Feynman              :  0.127156E+00 -0.505652E-01  0.878214E-01
   Ionic forces                  :  0.000000E+00  0.000000E+00  0.000000E+00
   Multipole                     : -0.189235E+00  0.158043E+00 -0.283178E-01
   Pulay + GGA                   :  0.740204E-01 -0.963415E-01 -0.212218E-01
   Van der Waals                 : -0.604805E-03 -0.503660E-02 -0.203150E-02
   ----------------------------------------------------------------
   Total forces(  13)            :  0.113366E-01  0.609975E-02  0.362502E-01
  atom #   14
   Hellmann-Feynman              :  0.763680E-01 -0.281493E-01  0.228976E+00
   Ionic forces                  :  0.000000E+00  0.000000E+00  0.000000E+00
   Multipole                     :  0.119070E+00  0.111090E-01 -0.206907E+00
   Pulay + GGA                   : -0.186539E+00  0.331437E-01  0.142409E-01
   Van der Waals                 : -0.106143E-01 -0.168541E-02 -0.684350E-02
   ----------------------------------------------------------------
   Total forces(  14)            : -0.171563E-02  0.144179E-01  0.294669E-01

  Timings for VdW correction (Tkatchenko-Scheffler 2009 or later):
  | CPU time:        0.008 s, Wall clock time:        0.008 s.
  Removing unitary transformations (pure translations, rotations) from forces on atoms.
  Atomic forces before filtering:
  | Net force on center of mass :  -0.755508E-02 -0.287823E-01 -0.121228E+00 eV/A
  | Net torque on center of mass:   0.424048E-01  0.147527E+00 -0.411244E-01 eV
  Atomic forces after filtering:
  | Net force on center of mass :   0.179461E+00  0.168160E+00  0.421266E+00 eV/A
  | Net torque on center of mass:   0.214468E-01  0.246928E-01 -0.189932E-01 eV

  Energy and forces in a compact form:
  | Total energy uncorrected      :         -0.273627708403902E+05 eV
  | Total energy corrected        :         -0.273627736613381E+05 eV  <-- do not rely on this value for anything but (periodic) metals
  | Electronic free energy        :         -0.273627764822859E+05 eV
  Total atomic forces (unitary forces were cleaned, then relaxation constraints were applied) [eV/Ang]:
  |   1          0.000000000000000E+00          0.000000000000000E+00          0.000000000000000E+00
  |   2          0.166562278821115E-01          0.652987353742865E-02          0.166900010170989E-01
  |   3          0.183112349047166E-01          0.138036382666648E-01          0.234297149250506E-01
  |   4         -0.838916419401796E-03         -0.987195487029709E-03          0.740396908864353E-01
  |   5          0.300609508584212E-01          0.486070604903990E-01          0.306426985603670E-01
  |   6          0.270635081126055E-01          0.187093951064639E-01         -0.889959556122993E-02
  |   7         -0.135118726514740E-02         -0.464559835610611E-02          0.217224646339707E-01
  |   8          0.169475660112884E-01          0.301131358766507E-01          0.157031998789055E-01
  |   9          0.876225238687959E-02          0.657556025414746E-02          0.594760234891389E-01
  |  10          0.654365215145778E-02         -0.313687067701104E-02          0.462108087361889E-01
  |  11          0.203448415296873E-01          0.177382605050195E-01          0.414749921289276E-01
  |  12          0.160448523818961E-01          0.137222402017605E-01          0.242953788229614E-01
  |  13          0.157510628314382E-01          0.661236764546487E-02          0.392299898789749E-01
  |  14          0.516513329610731E-02          0.145182123211567E-01          0.372506048749881E-01

  ------------------------------------ 
  Start decomposition of the XC Energy 
  ------------------------------------ 
  Hartree-Fock part   :          0.000000000 Ha              0.000000000 eV
  ------------------------------------ 
  X Energy            :        -76.183898032 Ha          -2073.069342067 eV
  C Energy GGA        :         -2.361960942 Ha            -64.272227363 eV
  Total XC Energy     :        -78.545858974 Ha          -2137.341569430 eV
  LDA X and C from self-consistent density 
  X Energy LDA        :        -69.972129897 Ha          -1904.038530908 eV
  C Energy LDA        :         -4.688779457 Ha           -127.588180636 eV
  ------------------------------------ 
  End decomposition of the XC Energy 
  ------------------------------------ 
  Relaxation / MD: End force evaluation.       :  max(cpu_time)    wall_clock(cpu1)
  | Time for this force evaluation             :        0.392 s           0.437 s

------------------------------------------------------------
  Geometry optimization: Attempting to predict improved coordinates.

  Removing unitary transformations (pure translations, rotations) from forces on atoms.
  Atomic forces before filtering:
  | Net force on center of mass :   0.179461E+00  0.168160E+00  0.421266E+00 eV/A
  | Net torque on center of mass:   0.214468E-01  0.246928E-01 -0.189932E-01 eV
  Atomic forces after filtering:
  | Net force on center of mass :   0.145160E-01  0.100534E-01  0.302152E-01 eV/A
  | Net torque on center of mass:   0.757388E-02  0.671333E-02 -0.587233E-02 eV
  Net remaining forces (excluding translations, rotations) in present geometry:
  Maximum force component is  0.452682E-01 eV/A.
  Present geometry is converged.

------------------------------------------------------------
  Final atomic structure:
                         x [A]             y [A]             z [A]
            atom         0.00000000        0.00000000        0.00000000  Ca
            atom         0.66088192       -1.30191838       -1.74248429  O
            atom         0.06521756       -1.56190854       -2.80301196  C
            atom         0.66560806       -2.35206214       -3.68665058  O
            atom        -1.26846980       -0.89985966       -3.14811692  C
            atom        -1.89791494       -0.49782543       -1.85286313  N
            atom        -2.16611209       -1.70145452       -4.10107957  C
            atom         0.09066892       -2.51722698       -4.46253007  H
            atom        -0.98094658        0.04427768       -3.65283197  H
            atom        -2.46621808       -1.28518962       -1.50747595  H
            atom        -2.58027089        0.24704790       -2.04337318  H
            atom        -2.44248444       -2.68212917       -3.68709070  H
            atom        -3.09114320       -1.14651333       -4.30961626  H
            atom        -1.69612641       -1.85694723       -5.08677849  H
------------------------------------------------------------

------------------------------------------------------------------------------
  Final output of selected total energy values:

  The following output summarizes some interesting total energy values
  at the end of a run (AFTER all relaxation, molecular dynamics, etc.).

  | Total energy of the DFT / Hartree-Fock s.c.f. calculation      :         -27362.770840390 eV
  | Final zero-broadening corrected energy (caution - metals only) :         -27362.773661338 eV
  | For reference only, the value of 1 Hartree used in FHI-aims is :             27.211384500 eV

  Before relying on these values, please be sure to understand exactly which
  total energy value is referred to by a given number. Different objects may
  all carry the same name 'total energy'. Definitions:

  Total energy of the DFT / Hartree-Fock s.c.f. calculation:
  | Note that this energy does not include ANY quantities calculated after the
  | s.c.f. cycle, in particular not ANY RPA, MP2, etc. many-body perturbation terms.

  Final zero-broadening corrected energy:
  | For metallic systems only, a broadening of the occupation numbers at the Fermi
  | level can be extrapolated back to zero broadening by an electron-gas inspired
  | formula. For all systems that are not real metals, this value can be
  | meaningless and should be avoided.

------------------------------------------------------------------------------
  Methods described in the following list of references were used in this FHI-aims run.
  If you publish the results, please make sure to cite these reference if they apply.
  FHI-aims is an academic code, and for our developers (often, Ph.D. students
  and postdocs), scientific credit in the community is essential.
  Thank you for helping us!

  For any use of FHI-aims, please cite:

    Volker Blum, Ralf Gehrke, Felix Hanke, Paula Havu, Ville Havu,
    Xinguo Ren, Karsten Reuter, and Matthias Scheffler
    'Ab initio molecular simulations with numeric atom-centered orbitals'
    Computer Physics Communications 180, 2175-2196 (2009)
    http://dx.doi.org/10.1016/j.cpc.2009.06.022


  The scalable eigensolver library ELPA was used in your run.
  ELPA is essential especially for large systems on hundreds or thousands of CPUs.
  For ELPA, please cite:

    Andreas Marek, Volker Blum, Rainer Johanni, Ville Havu, Bruno Lang,
    Thomas Auckenthaler, Alexander Heinecke, Hans-Joachim Bungartz, and Hermann Lederer,
    'The ELPA Library - Scalable Parallel Eigenvalue Solutions
    for Electronic Structure Theory and Computational Science'
    The Journal of Physics: Condensed Matter 26, 213201 (2014).
    http://dx.doi.org/10.1088/0953-8984/26/21/213201


  For the real-space grid partitioning and parallelization used in this calculation, please cite:

    Ville Havu, Volker Blum, Paula Havu, and Matthias Scheffler,
    'Efficient O(N) integration for all-electron electronic structure calculation'
    'using numerically tabulated basis functions'
    Journal of Computational Physics 228, 8367-8379 (2009).
    http://dx.doi.org/10.1016/j.jcp.2009.08.008

  Of course, there are many other important community references, e.g., those cited in the
  above references. Our list is limited to references that describe implementations in the
  FHI-aims code. The reason is purely practical (length of this list) - please credit others as well.

 * During the run, the code found that basic geometry arrays were
 * not always the same on different MPI tasks. Please see the
 * information printed further up in this output file.
 * We have observed that flips of individual bits can happen for
 * arrays that should formally be the same, but this happens only for
 * certain compilers and / or hardware platforms. Usually, this is
 * not problematic but it would be good to check that this is indeed
 * all that is going on.

------------------------------------------------------------
          Leaving FHI-aims.
          Date     :  20170702, Time     :  200815.838

          Computational steps:
          | Number of self-consistency cycles          :          369
          | Number of relaxation steps                 :           36

          Detailed time accounting                     :  max(cpu_time)    wall_clock(cpu1)
          | Total time                                 :       18.033 s          18.054 s
          | Preparation time                           :        0.408 s           0.405 s
          | Grid partitioning                          :        0.648 s           0.560 s
          | Preloading free-atom quantities on grid    :        0.168 s           0.156 s
          | Free-atom superposition energy             :        0.088 s           0.056 s
          | Total time for integrations                :        4.740 s           3.691 s
          | Total time for solution of K.-S. equations :        4.180 s           3.434 s
          | Total time for EV reorthonormalization     :        0.136 s           0.121 s
          | Total time for density & force components  :        3.884 s           3.125 s
          | Total time for mixing                      :        1.312 s           0.114 s
          | Total time for Hartree multipole update    :        1.476 s           0.404 s
          | Total time for Hartree multipole sum       :        5.188 s           4.094 s
          | Total time for total energy evaluation     :        0.952 s           0.655 s
          | Total time for scaled ZORA corrections     :        0.000 s           0.000 s
          | Total time for vdW correction              :        0.304 s           0.283 s

          Have a nice day.
------------------------------------------------------------
