------------------------------------------------------------
          Invoking FHI-aims ...
          Version 160328_3
          Compiled on 2017/02/05 at 18:59:46 on host theobook107.

          When using FHI-aims, please cite the following reference:

          Volker Blum, Ralf Gehrke, Felix Hanke, Paula Havu,
          Ville Havu, Xinguo Ren, Karsten Reuter, and Matthias Scheffler,
          'Ab Initio Molecular Simulations with Numeric Atom-Centered Orbitals',
          Computer Physics Communications 180, 2175-2196 (2009)

          For any questions about FHI-aims, please visit the aimsclub website
          with its forums and wiki. Contributions to both the forums and the
          wiki are warmly encouraged - they are for you, and everyone is welcome there.

------------------------------------------------------------

  Date     :  20170619, Time     :  162159.877
  Time zero on CPU 1             :   0.000000000000000E+00  s.
  Internal wall clock time zero  :           267121319.877  s.


  Performing system and environment tests:
  *** Environment variable OMP_NUM_THREADS is not set
  *** For performance reasons you might want to set it to 1
  | Stacksize not measured: no C compiler

  Obtaining array dimensions for all initial allocations:
  
  -----------------------------------------------------------------------
  Parsing control.in (first pass over file, find array dimensions only).
  The contents of control.in will be repeated verbatim below
  unless switched off by setting 'verbatim_writeout .false.' .
  in the first line of control.in .
  -----------------------------------------------------------------------
  
  #########################################################################################
  #
  #  Volker Blum, FHI 2009 : Test run input file control.in for simple H2O
  #
  #########################################################################################
  #
  #  Physical model
  #
    xc                 pbe
  # many_body_dispersion
    vdw_correction_hirshfeld
    relativistic       atomic_zora scalar
    charge             1.0
  #
  #  SCF convergence
  #
    sc_accuracy_rho    1E-4
    sc_accuracy_eev    1E-3
    sc_accuracy_etot   1E-6
    sc_accuracy_forces 5E-4
    sc_iter_limit      10000
  #
  #  Relaxation
  #
  #RI_method LVL_fast
   # relax_geometry trm 5E-3
   # relax_geometry   bfgs_textbook 1.e-2
  #
  ################################################################################
  #
  #  FHI-aims code project
  #  VB, Fritz-Haber Institut, 2009
  #
  #  Suggested "light" defaults for H atom (to be pasted into control.in file)
  #  Be sure to double-check any results obtained with these settings for post-processing,
  #  e.g., with the "tight" defaults and larger basis sets.
  #
  ################################################################################
    species        H
  #     global species definitions
      nucleus             1
      mass                1.00794
  #
      l_hartree           4
  #
      cut_pot             3.5  1.5  1.0
      basis_dep_cutoff    1e-4
  #
      radial_base         24 5.0
      radial_multiplier   1
      angular_grids       specified
        division   0.2421   50
        division   0.3822  110
        division   0.4799  194
        division   0.5341  302
  #      division   0.5626  434
  #      division   0.5922  590
  #      division   0.6542  770
  #      division   0.6868 1202
  #      outer_grid  770
        outer_grid  302
  ################################################################################
  #
  #  Definition of "minimal" basis
  #
  ################################################################################
  #     valence basis states
      valence      1  s   1.
  #     ion occupancy
      ion_occ      1  s   0.5
  ################################################################################
  #
  #  Suggested additional basis functions. For production calculations,
  #  uncomment them one after another (the most important basis functions are
  #  listed first).
  #
  #  Basis constructed for dimers: 0.5 A, 0.7 A, 1.0 A, 1.5 A, 2.5 A
  #
  ################################################################################
  #  "First tier" - improvements: -1014.90 meV to -62.69 meV
       hydro 2 s 2.1
       hydro 2 p 3.5
  #  "Second tier" - improvements: -12.89 meV to -1.83 meV
  #     hydro 1 s 0.85
  #     hydro 2 p 3.7
  #     hydro 2 s 1.2
  #     hydro 3 d 7
  #  "Third tier" - improvements: -0.25 meV to -0.12 meV
  #     hydro 4 f 11.2
  #     hydro 3 p 4.8
  #     hydro 4 d 9
  #     hydro 3 s 3.2
  
  ################################################################################
  #
  #  FHI-aims code project
  #  VB, Fritz-Haber Institut, 2009
  #
  #  Suggested "light" defaults for O atom (to be pasted into control.in file)
  #  Be sure to double-check any results obtained with these settings for post-processing,
  #  e.g., with the "tight" defaults and larger basis sets.
  #
  ################################################################################
    species        O
  #     global species definitions
      nucleus             8
      mass                15.9994
  #
      l_hartree           4
  #
      cut_pot             3.5  1.5  1.0
      basis_dep_cutoff    1e-4
  #
      radial_base         36 5.0
      radial_multiplier   1
       angular_grids specified
        division   0.2659   50
        division   0.4451  110
        division   0.6052  194
        division   0.7543  302
  #      division   0.8014  434
  #      division   0.8507  590
  #      division   0.8762  770
  #      division   0.9023  974
  #      division   1.2339 1202
  #      outer_grid 974
        outer_grid 302
  ################################################################################
  #
  #  Definition of "minimal" basis
  #
  ################################################################################
  #     valence basis states
      valence      2  s   2.
      valence      2  p   4.
  #     ion occupancy
      ion_occ      2  s   1.
      ion_occ      2  p   3.
  ################################################################################
  #
  #  Suggested additional basis functions. For production calculations,
  #  uncomment them one after another (the most important basis functions are
  #  listed first).
  #
  #  Constructed for dimers: 1.0 A, 1.208 A, 1.5 A, 2.0 A, 3.0 A
  #
  ################################################################################
  #  "First tier" - improvements: -699.05 meV to -159.38 meV
       hydro 2 p 1.8
       hydro 3 d 7.6
       hydro 3 s 6.4
  #  "Second tier" - improvements: -49.91 meV to -5.39 meV
  #     hydro 4 f 11.6
  #     hydro 3 p 6.2
  #     hydro 3 d 5.6
  #     hydro 5 g 17.6
  #     hydro 1 s 0.75
  #  "Third tier" - improvements: -2.83 meV to -0.50 meV
  #     ionic 2 p auto
  #     hydro 4 f 10.8
  #     hydro 4 d 4.7
  #     hydro 2 s 6.8
  #  "Fourth tier" - improvements: -0.40 meV to -0.12 meV
  #     hydro 3 p 5
  #     hydro 3 s 3.3
  #     hydro 5 g 15.6
  #     hydro 4 f 17.6
  #     hydro 4 d 14
  # Further basis functions - -0.08 meV and below
  #     hydro 3 s 2.1
  #     hydro 4 d 11.6
  #     hydro 3 p 16
  #     hydro 2 s 17.2
  ################################################################################
  #
  #  FHI-aims code project
  #  VB, Fritz-Haber Institut, 2009
  #
  #  Suggested "light" defaults for C atom (to be pasted into control.in file)
  #  Be sure to double-check any results obtained with these settings for post-processing,
  #  e.g., with the "tight" defaults and larger basis sets.
  #
  ################################################################################
    species        C
  #     global species definitions
      nucleus             6
      mass                12.0107
  #
      l_hartree           4
  #
      cut_pot             3.5  1.5  1.0
      basis_dep_cutoff    1e-4
  #
      radial_base         34 5.0
      radial_multiplier   1
      angular_grids specified
        division   0.3326   50
        division   0.5710  110
        division   0.7727  194
        division   0.8772  302
  #      division   0.9334  434
  #      division   0.9625  590
  #      division   0.9924  770
  #      division   1.0230  974
  #      division   1.4589 1202
  #     outer_grid  974
       outer_grid 302
  ################################################################################
  #
  #  Definition of "minimal" basis
  #
  ################################################################################
  #     valence basis states
      valence      2  s   2.
      valence      2  p   2.
  #     ion occupancy
      ion_occ      2  s   1.
      ion_occ      2  p   1.
  ################################################################################
  #
  #  Suggested additional basis functions. For production calculations,
  #  uncomment them one after another (the most important basis functions are
  #  listed first).
  #
  #  Constructed for dimers: 1.0 A, 1.25 A, 1.5 A, 2.0 A, 3.0 A
  #
  ################################################################################
  #  "First tier" - improvements: -1214.57 meV to -155.61 meV
       hydro 2 p 1.7
       hydro 3 d 6
       hydro 2 s 4.9
  #  "Second tier" - improvements: -67.75 meV to -5.23 meV
  #     hydro 4 f 9.8
  #     hydro 3 p 5.2
  #     hydro 3 s 4.3
  #     hydro 5 g 14.4
  #     hydro 3 d 6.2
  #  "Third tier" - improvements: -2.43 meV to -0.60 meV
  #     hydro 2 p 5.6
  #     hydro 2 s 1.4
  #     hydro 3 d 4.9
  #     hydro 4 f 11.2
  #  "Fourth tier" - improvements: -0.39 meV to -0.18 meV
  #     hydro 2 p 2.1
  #     hydro 5 g 16.4
  #     hydro 4 d 13.2
  #     hydro 3 s 13.6
  #     hydro 4 f 17.6
  #  Further basis functions - improvements: -0.08 meV and below
  #     hydro 3 s 2
  #     hydro 3 p 6
  #     hydro 4 d 20
  ################################################################################
  #
  #  FHI-aims code project
  #  VB, Fritz-Haber Institut, 2009
  #
  #  Suggested "light" defaults for N atom (to be pasted into control.in file)
  #  Be sure to double-check any results obtained with these settings for post-processing,
  #  e.g., with the "tight" defaults and larger basis sets.
  #
  ################################################################################
    species        N
  #     global species definitions
      nucleus             7
      mass                14.0067
  #
      l_hartree           4
  #
      cut_pot             3.5  1.5  1.0
      basis_dep_cutoff    1e-4
  #
      radial_base         35 5.0
      radial_multiplier   1
      angular_grids       specified
        division   0.2599   50
        division   0.4601  110
        division   0.5885  194
        division   0.6503  302
  #      division   0.6939  434
  #      division   0.7396  590
  #      division   0.7632  770
  #      division   0.8122  974
  #      division   1.1604 1202
  #      outer_grid  974
        outer_grid  302
  ################################################################################
  #
  #  Definition of "minimal" basis
  #
  ################################################################################
  #     valence basis states
      valence      2  s   2.
      valence      2  p   3.
  #     ion occupancy
      ion_occ      2  s   1.
      ion_occ      2  p   2.
  ################################################################################
  #
  #  Suggested additional basis functions. For production calculations,
  #  uncomment them one after another (the most important basis functions are
  #  listed first).
  #
  #  Constructed for dimers: 1.0 A, 1.1 A, 1.5 A, 2.0 A, 3.0 A
  #
  ################################################################################
  #  "First tier" - improvements: -1193.42 meV to -220.60 meV
       hydro 2 p 1.8
       hydro 3 d 6.8
       hydro 3 s 5.8
  #  "Second tier" - improvements: -80.21 meV to -6.86 meV
  #     hydro 4 f 10.8
  #     hydro 3 p 5.8
  #     hydro 1 s 0.8
  #     hydro 5 g 16
  #     hydro 3 d 4.9
  #  "Third tier" - improvements: -4.29 meV to -0.53 meV
  #     hydro 3 s 16
  #     ionic 2 p auto
  #     hydro 3 d 6.6
  #     hydro 4 f 11.6
  #  "Fourth tier" - improvements: -0.75 meV to -0.25 meV
  #     hydro 2 p 4.5
  #     hydro 2 s 2.4
  #     hydro 5 g 14.4
  #     hydro 4 d 14.4
  #     hydro 4 f 16.8
  # Further basis functions - -0.21 meV and below
  #     hydro 3 p 14.8
  #     hydro 3 s 4.4
  #     hydro 3 d 19.6
  #     hydro 5 g 12.8
  
  
  
  ################################################################################
    species        Na
  #     global species definitions
      nucleus             11
      mass                22.98976928
  #
      l_hartree           4
  #
      cut_pot             4.0          1.5  1.0
      basis_dep_cutoff    1e-4
  #
      radial_base         40 5.5
      radial_multiplier   1
      angular_grids       specified
        division   0.5925  110
        division   0.7843  194
        division   1.0201  302
  #      division   1.1879  434
  #      division   1.3799  590
  #      division   1.4503  770
  #      division   7.0005  974
  #      outer_grid  974
        outer_grid  302
  ################################################################################
  #
  #  Definition of "minimal" basis
  #
  ################################################################################
  #     valence basis states
      valence      3  s   1.
      valence      2  p   6.
  #     ion occupancy
      ion_occ      2  s   2.
      ion_occ      2  p   6.
  ################################################################################
  #
  #  Suggested additional basis functions. For production calculations,
  #  uncomment them one after another (the most important basis functions are
  #  listed first).
  #
  #  Constructed for dimers: 2.0 A, 2.5 A, 3.0 A, 3.75 A, 4.5 A
  #
  ################################################################################
  #  "First tier" - improvements: -60.09 meV to -10.02 meV
       hydro 2 p 1.2
       hydro 3 s 1.8
       hydro 3 d 3.8
  #  "Second tier" - improvements: -2.94 meV to -1.27 meV
  #     hydro 4 p 3.1
  #     hydro 3 s 10
  #     hydro 4 f 6.2
  #     hydro 4 d 1.3
  #  "Third tier" - improvements: -0.83 meV to -0.07 meV
  #     hydro 3 d 7.8
  #     hydro 3 p 2.3
  #     hydro 5 g 9.6
  #     hydro 4 p 0.85
  #     hydro 5 f 1.8
  #     hydro 2 s 0.6
  #  Further basis functions that fell out of the optimization - noise level...
  #     hydro 5 g 0.1
  #     hydro 4 d 3.4
  #     hydro 4 s 0.1
  
  -----------------------------------------------------------------------
  Completed first pass over input file control.in .
  -----------------------------------------------------------------------
  
  
  -----------------------------------------------------------------------
  Parsing geometry.in (first pass over file, find array dimensions only).
  The contents of geometry.in will be repeated verbatim below
  unless switched off by setting 'verbatim_writeout .false.' .
  in the first line of geometry.in .
  -----------------------------------------------------------------------
  
  atom   0.0   0.0   0.0   Na
  constrain_relaxation .true.
  
  atom    0.0698    0.0000    4.0000   N
  atom   -0.3235   -0.7703    3.4145   H
  atom   -0.3235   -0.1218    4.9599   H
  atom   -0.3235    0.8922    3.6256   H
  
  -----------------------------------------------------------------------
  Completed first pass over input file geometry.in .
  -----------------------------------------------------------------------
  

  Basic array size parameters:
  | Number of species                 :        5
  | Number of atoms                   :        5
  | Max. basis fn. angular momentum   :        2
  | Max. atomic/ionic basis occupied n:        3
  | Max. number of basis fn. types    :        2
  | Max. radial fns per species/type  :        4
  | Max. logarithmic grid size        :     1327
  | Max. radial integration grid size :       40
  | Max. angular integration grid size:      302
  | Max. angular grid division number :        8
  | Radial grid for Hartree potential :     1327
  | Number of spin channels           :        1

------------------------------------------------------------
          Reading file control.in.
------------------------------------------------------------
  XC: Using PBE gradient-corrected functionals.
  Scalar relativistic treatment of kinetic energy: on-site free-atom approximation to ZORA.
  Charged system requested: Charge =   0.100000E+01.
  Convergence accuracy of self-consistent charge density:  0.1000E-03
  Convergence accuracy of sum of eigenvalues:  0.1000E-02
  Convergence accuracy of total energy:  0.1000E-05
  Convergence accuracy of forces:  0.5000E-03
  Maximum number of s.-c. iterations  : 10000
 
  Reading configuration options for species H                   .
  | Found nuclear charge :   1.0000
  | Found atomic mass :    1.00794000000000      amu
  | Found l_max for Hartree potential  :   4
  | Found cutoff potl. onset [A], width [A], scale factor :    3.50000    1.50000    1.00000
  | Threshold for basis-dependent cutoff potential is   0.100000E-03
  | Found data for basic radial integration grid :    24 points, outermost radius =    5.000 A
  | Found multiplier for basic radial grid :   1
  | Found angular grid specification: user-specified.
  | Specified grid contains     5 separate shells.
  | Check grid settings after all constraints further below.
  | Found free-atom valence shell :  1 s   1.000
  | No ionic wave fns used. Skipping ion_occ.
  | Found hydrogenic basis function :  2 s   2.100
  | Found hydrogenic basis function :  2 p   3.500
  Species H                   : Missing cutoff potential type.
  Defaulting to exp(1/x)/(1-x)^2 type cutoff potential.
  Species H : No 'logarithmic' tag. Using default grid for free atom:
  | Default logarithmic grid data [bohr] : 0.1000E-03 0.1000E+03 0.1012E+01
  Species H : On-site basis accuracy parameter (for Gram-Schmidt orthonormalisation) not specified.
  Using default value basis_acc =  0.1000000E-03.
  Species H                   : Using default innermost maximum threshold i_radial=  2 for radial functions.
  Species H                   : Default cutoff onset for free atom density etc. : 0.35000000E+01 AA.
  Species H                   : Basic radial grid will be enhanced according to radial_multiplier =   1, to contain    24 grid points.
 
  Reading configuration options for species O                   .
  | Found nuclear charge :   8.0000
  | Found atomic mass :    15.9994000000000      amu
  | Found l_max for Hartree potential  :   4
  | Found cutoff potl. onset [A], width [A], scale factor :    3.50000    1.50000    1.00000
  | Threshold for basis-dependent cutoff potential is   0.100000E-03
  | Found data for basic radial integration grid :    36 points, outermost radius =    5.000 A
  | Found multiplier for basic radial grid :   1
  | Found angular grid specification: user-specified.
  | Specified grid contains     5 separate shells.
  | Check grid settings after all constraints further below.
  | Found free-atom valence shell :  2 s   2.000
  | Found free-atom valence shell :  2 p   4.000
  | No ionic wave fns used. Skipping ion_occ.
  | No ionic wave fns used. Skipping ion_occ.
  | Found hydrogenic basis function :  2 p   1.800
  | Found hydrogenic basis function :  3 d   7.600
  | Found hydrogenic basis function :  3 s   6.400
  Species O                   : Missing cutoff potential type.
  Defaulting to exp(1/x)/(1-x)^2 type cutoff potential.
  Species O : No 'logarithmic' tag. Using default grid for free atom:
  | Default logarithmic grid data [bohr] : 0.1000E-03 0.1000E+03 0.1012E+01
  Species O : On-site basis accuracy parameter (for Gram-Schmidt orthonormalisation) not specified.
  Using default value basis_acc =  0.1000000E-03.
  Species O                   : Using default innermost maximum threshold i_radial=  2 for radial functions.
  Species O                   : Default cutoff onset for free atom density etc. : 0.35000000E+01 AA.
  Species O                   : Basic radial grid will be enhanced according to radial_multiplier =   1, to contain    36 grid points.
 
  Reading configuration options for species C                   .
  | Found nuclear charge :   6.0000
  | Found atomic mass :    12.0107000000000      amu
  | Found l_max for Hartree potential  :   4
  | Found cutoff potl. onset [A], width [A], scale factor :    3.50000    1.50000    1.00000
  | Threshold for basis-dependent cutoff potential is   0.100000E-03
  | Found data for basic radial integration grid :    34 points, outermost radius =    5.000 A
  | Found multiplier for basic radial grid :   1
  | Found angular grid specification: user-specified.
  | Specified grid contains     5 separate shells.
  | Check grid settings after all constraints further below.
  | Found free-atom valence shell :  2 s   2.000
  | Found free-atom valence shell :  2 p   2.000
  | No ionic wave fns used. Skipping ion_occ.
  | No ionic wave fns used. Skipping ion_occ.
  | Found hydrogenic basis function :  2 p   1.700
  | Found hydrogenic basis function :  3 d   6.000
  | Found hydrogenic basis function :  2 s   4.900
  Species C                   : Missing cutoff potential type.
  Defaulting to exp(1/x)/(1-x)^2 type cutoff potential.
  Species C : No 'logarithmic' tag. Using default grid for free atom:
  | Default logarithmic grid data [bohr] : 0.1000E-03 0.1000E+03 0.1012E+01
  Species C : On-site basis accuracy parameter (for Gram-Schmidt orthonormalisation) not specified.
  Using default value basis_acc =  0.1000000E-03.
  Species C                   : Using default innermost maximum threshold i_radial=  2 for radial functions.
  Species C                   : Default cutoff onset for free atom density etc. : 0.35000000E+01 AA.
  Species C                   : Basic radial grid will be enhanced according to radial_multiplier =   1, to contain    34 grid points.
 
  Reading configuration options for species N                   .
  | Found nuclear charge :   7.0000
  | Found atomic mass :    14.0067000000000      amu
  | Found l_max for Hartree potential  :   4
  | Found cutoff potl. onset [A], width [A], scale factor :    3.50000    1.50000    1.00000
  | Threshold for basis-dependent cutoff potential is   0.100000E-03
  | Found data for basic radial integration grid :    35 points, outermost radius =    5.000 A
  | Found multiplier for basic radial grid :   1
  | Found angular grid specification: user-specified.
  | Specified grid contains     5 separate shells.
  | Check grid settings after all constraints further below.
  | Found free-atom valence shell :  2 s   2.000
  | Found free-atom valence shell :  2 p   3.000
  | No ionic wave fns used. Skipping ion_occ.
  | No ionic wave fns used. Skipping ion_occ.
  | Found hydrogenic basis function :  2 p   1.800
  | Found hydrogenic basis function :  3 d   6.800
  | Found hydrogenic basis function :  3 s   5.800
  Species N                   : Missing cutoff potential type.
  Defaulting to exp(1/x)/(1-x)^2 type cutoff potential.
  Species N : No 'logarithmic' tag. Using default grid for free atom:
  | Default logarithmic grid data [bohr] : 0.1000E-03 0.1000E+03 0.1012E+01
  Species N : On-site basis accuracy parameter (for Gram-Schmidt orthonormalisation) not specified.
  Using default value basis_acc =  0.1000000E-03.
  Species N                   : Using default innermost maximum threshold i_radial=  2 for radial functions.
  Species N                   : Default cutoff onset for free atom density etc. : 0.35000000E+01 AA.
  Species N                   : Basic radial grid will be enhanced according to radial_multiplier =   1, to contain    35 grid points.
 
  Reading configuration options for species Na                  .
  | Found nuclear charge :  11.0000
  | Found atomic mass :    22.9897692800000      amu
  | Found l_max for Hartree potential  :   4
  | Found cutoff potl. onset [A], width [A], scale factor :    4.00000    1.50000    1.00000
  | Threshold for basis-dependent cutoff potential is   0.100000E-03
  | Found data for basic radial integration grid :    40 points, outermost radius =    5.500 A
  | Found multiplier for basic radial grid :   1
  | Found angular grid specification: user-specified.
  | Specified grid contains     4 separate shells.
  | Check grid settings after all constraints further below.
  | Found free-atom valence shell :  3 s   1.000
  | Found free-atom valence shell :  2 p   6.000
  | No ionic wave fns used. Skipping ion_occ.
  | No ionic wave fns used. Skipping ion_occ.
  | Found hydrogenic basis function :  2 p   1.200
  | Found hydrogenic basis function :  3 s   1.800
  | Found hydrogenic basis function :  3 d   3.800
  Species Na                  : Missing cutoff potential type.
  Defaulting to exp(1/x)/(1-x)^2 type cutoff potential.
  Species Na: No 'logarithmic' tag. Using default grid for free atom:
  | Default logarithmic grid data [bohr] : 0.1000E-03 0.1000E+03 0.1012E+01
  Species Na: On-site basis accuracy parameter (for Gram-Schmidt orthonormalisation) not specified.
  Using default value basis_acc =  0.1000000E-03.
  Species Na                  : Using default innermost maximum threshold i_radial=  2 for radial functions.
  Species Na                  : Default cutoff onset for free atom density etc. : 0.40000000E+01 AA.
  Species Na                  : Basic radial grid will be enhanced according to radial_multiplier =   1, to contain    40 grid points.
 
  Finished reading input file 'control.in'. Consistency checks are next.
 
  Target number of points in a grid batch is not set. Defaulting to  100
  Method for grid partitioning is not set. Defaulting to 'maxmin' partitioning.
  Batch size limit is not set. Defaulting to    200
  By default, will store active basis functions for each batch.
  If in need of memory, prune_basis_once .false. can be used to disable this option.
  communication_type for Hartree potential was not specified.
  Defaulting to calc_hartree .
 * Attention: 
 * You may want to set distributed_spline_storage to .true. in order to save memory.
 * This doesn't harm performance and is perfectly ok unless:
 * - you get error messages in postprocessing (about missing atoms in get_rho_multipole_spl)
 * - you need full spline storage in hirshfeld_analysis
  Defaulting to Pulay charge density mixer.
  Pulay mixer: Number of relevant iterations not set.
  Defaulting to    8 iterations.
  Pulay mixer: Number of initial linear mixing iterations not set.
  Defaulting to    0 iterations.
  Work space size for distributed Hartree potential not set.
  Defaulting to   0.200000E+03 MB.
  Mixing parameter for charge density mixing has not been set.
  Using default: charge_mix_param =     0.2000.
  Algorithm-dependent basis array size parameters:
  | n_max_pulay                         :        8
  Geometry relaxation not requested: no relaxation will be performed.
  Handling of forces: Unphysical translation and rotation will be removed from forces.
  No accuracy limit for integral partition fn. given. Defaulting to  0.1000E-14.
  No threshold value for u(r) in integrations given. Defaulting to  0.1000E-05.
  No occupation type (smearing scheme) given. Defaulting to Gaussian broadening, width =  0.1000E-01 eV.
  No accuracy for occupation numbers given. Defaulting to  0.1000E-07.
  No threshold value for occupation numbers given. Defaulting to  0.0000E+00.
  No accuracy for fermi level given. Defaulting to  0.1000E-19.
  Maximum # of iterations to find E_F not set. Defaulting to  200.
  Preferred method for the eigenvalue solver ('KS_method') not specified in 'control.in'.
  Defaulting to serial version, 'lapack_fast'.
  Will not use alltoall communication since running on < 1024 CPUs.
  Threshold for basis singularities not set.
  Default threshold for basis singularities:  0.1000E-04
  partition_type (choice of integration weights) for integrals was not specified.
  | Using a version of the partition function of Stratmann and coworkers ('stratmann_smoother').
  | At each grid point, the set of atoms used to build the partition table is smoothly restricted to
  | only those atoms whose free-atom density would be non-zero at that grid point.
  Partitioning for Hartree potential was not defined. Using partition_type for integrals.
  | Adjusted default value of keyword multip_moments_threshold to:       0.10000000E-11
  | This value may affect high angular momentum components of the Hartree potential in periodic systems.
  Spin handling was not defined in control.in. Defaulting to unpolarized case.
  No q(lm)/r^(l+1) cutoff set for long-range Hartree potential.
  | Using default value of  0.100000E-09 .
  | Verify using the multipole_threshold keyword.
  Defaulting to new monopole extrapolation.
  Density update method: automatic selection selected.
------------------------------------------------------------


------------------------------------------------------------
          Reading geometry description geometry.in.
------------------------------------------------------------
 No relaxation requested - ignoring relaxation constraint.
 * Warning: Initial charge and total charge of the system are inconsistent.
 * Selected charge in control.in:     1.0000* Sum of initial charges in geometry.in:     0.0000
  Input structure read successfully.
  The structure contains        5 atoms,  and a total of         20.000 electrons.

  Input geometry:
  | No unit cell requested.
  | Atomic structure:
  |       Atom                x [A]            y [A]            z [A]
  |    1: Species Na             0.000000         0.000000         0.000000
  |    2: Species N              0.069800         0.000000         4.000000
  |    3: Species H             -0.323500        -0.770300         3.414500
  |    4: Species H             -0.323500        -0.121800         4.959900
  |    5: Species H             -0.323500         0.892200         3.625600
  |

  | The smallest distance between any two atoms is         1.04444111 AA.
  |
  | The first atom of this pair is atom number                      2 .
  | The second atom of this pair is atom number                     3 .

  Number of empty states per atom not set in control.in - providing a guess from actual geometry.
  | Total number of empty states used during s.c.f. cycle:       11
  If you use a very high smearing, use empty_states (per atom!) in control.in to increase this value.

  Structure-dependent array size parameters: 
  | Maximum number of distinct radial functions  :       28
  | Maximum number of basis functions            :       44
  | Number of Kohn-Sham states (occupied + empty):       21
------------------------------------------------------------

------------------------------------------------------------
          Preparing all fixed parts of the calculation.
------------------------------------------------------------
  Determining machine precision:
    2.225073858507201E-308
  Setting up grids for atomic and cluster calculations.

  Creating wave function, potential, and density for free atoms.

  Species: H

  List of occupied orbitals and eigenvalues:
    n    l              occ      energy [Ha]    energy [eV]
    1    0           1.0000        -0.237593        -6.4652


  Species: O

  List of occupied orbitals and eigenvalues:
    n    l              occ      energy [Ha]    energy [eV]
    1    0           2.0000       -18.926989      -515.0296
    2    0           2.0000        -0.880247       -23.9527
    2    1           4.0000        -0.331514        -9.0210


  Species: C

  List of occupied orbitals and eigenvalues:
    n    l              occ      energy [Ha]    energy [eV]
    1    0           2.0000       -10.046810      -273.3876
    2    0           2.0000        -0.503128       -13.6908
    2    1           2.0000        -0.191849        -5.2205


  Species: N

  List of occupied orbitals and eigenvalues:
    n    l              occ      energy [Ha]    energy [eV]
    1    0           2.0000       -14.143973      -384.8771
    2    0           2.0000        -0.682008       -18.5584
    2    1           3.0000        -0.259605        -7.0642


  Species: Na

  List of occupied orbitals and eigenvalues:
    n    l              occ      energy [Ha]    energy [eV]
    1    0           2.0000       -38.022277     -1034.6388
    2    0           2.0000        -2.069032       -56.3012
    3    0           1.0000        -0.087110        -2.3704
    2    1           6.0000        -1.037053       -28.2196

  Creating fixed part of basis set: Ionic, confined, hydrogenic.
 
  H                    hydrogenic:
 
  List of hydrogenic basis orbitals: 
    n    l      effective z      eigenvalue [eV]  inner max. [A]     outer max. [A]     outer radius [A]   
    2    0         2.100000       -14.9728           0.193243           1.317208           4.583499
    2    1         3.500000       -41.6669           0.602369           0.602369           3.723403
 
 
  O                    hydrogenic:
 
  List of hydrogenic basis orbitals: 
    n    l      effective z      eigenvalue [eV]  inner max. [A]     outer max. [A]     outer radius [A]   
    2    1         1.800000       -10.9749           1.164242           1.164242           4.578029
    3    2         7.600000       -87.3180           0.624125           0.624125           3.251020
    3    0         6.400000       -61.9207           0.061167           1.081902           4.001998
 
 
  C                    hydrogenic:
 
  List of hydrogenic basis orbitals: 
    n    l      effective z      eigenvalue [eV]  inner max. [A]     outer max. [A]     outer radius [A]   
    2    1         1.700000        -9.7616           1.230570           1.230570           4.607917
    3    2         6.000000       -54.4224           0.792453           0.792453           3.883070
    2    0         4.900000       -81.6679           0.082559           0.562749           3.078220
 
 
  N                    hydrogenic:
 
  List of hydrogenic basis orbitals: 
    n    l      effective z      eigenvalue [eV]  inner max. [A]     outer max. [A]     outer radius [A]   
    2    1         1.800000       -10.9749           1.177451           1.177451           4.573712
    3    2         6.800000       -69.9026           0.704619           0.704619           3.538137
    3    0         5.800000       -50.8545           0.067388           1.191934           4.250239
 
 
  Na                   hydrogenic:
 
  List of hydrogenic basis orbitals: 
    n    l      effective z      eigenvalue [eV]  inner max. [A]     outer max. [A]     outer radius [A]   
    2    1         1.200000        -4.7043           1.699681           1.699681           5.107393
    3    0         1.800000        -2.7647           0.215330           3.132057           5.107393
    3    2         3.800000       -21.8265           1.252092           1.252092           5.045336
 

  Adding cutoff potential to free-atom effective potential.
  Creating atomic-like basis functions for current effective potential.

  Species H                   :

  List of atomic basis orbitals and eigenvalues:
    n    l      energy [Ha]    energy [eV]    outer radius [A]
    1    0        -0.237593        -6.4652       4.527807


  Species O                   :

  List of atomic basis orbitals and eigenvalues:
    n    l      energy [Ha]    energy [eV]    outer radius [A]
    1    0       -18.926989      -515.0296       1.415765
    2    0        -0.880247       -23.9527       4.413171
    2    1        -0.331514        -9.0210       4.522403


  Species C                   :

  List of atomic basis orbitals and eigenvalues:
    n    l      energy [Ha]    energy [eV]    outer radius [A]
    1    0       -10.046810      -273.3876       1.934409
    2    0        -0.503128       -13.6908       4.496620
    2    1        -0.191849        -5.2205       4.551928


  Species N                   :

  List of atomic basis orbitals and eigenvalues:
    n    l      energy [Ha]    energy [eV]    outer radius [A]
    1    0       -14.143973      -384.8771       1.637919
    2    0        -0.682008       -18.5584       4.463241
    2    1        -0.259605        -7.0642       4.518138


  Species Na                  :

  List of atomic basis orbitals and eigenvalues:
    n    l      energy [Ha]    energy [eV]    outer radius [A]
    1    0       -38.022277     -1034.6388       1.017136
    2    0        -2.069032       -56.3012       4.200021
    3    0        -0.087110        -2.3704       5.107393
    2    1        -1.037053       -28.2196       4.746176

  Assembling full basis from fixed parts.
  | Species H :   atomic orbital   1 s accepted.
  | Species H :    hydro orbital   2 s accepted.
  | Species H :    hydro orbital   2 p accepted.
  | Species O :   atomic orbital   1 s accepted.
  | Species O :    hydro orbital   3 s accepted.
  | Species O :   atomic orbital   2 s accepted.
  | Species O :   atomic orbital   2 p accepted.
  | Species O :    hydro orbital   2 p accepted.
  | Species O :    hydro orbital   3 d accepted.
  | Species C :   atomic orbital   1 s accepted.
  | Species C :    hydro orbital   2 s accepted.
  | Species C :   atomic orbital   2 s accepted.
  | Species C :   atomic orbital   2 p accepted.
  | Species C :    hydro orbital   2 p accepted.
  | Species C :    hydro orbital   3 d accepted.
  | Species N :   atomic orbital   1 s accepted.
  | Species N :    hydro orbital   3 s accepted.
  | Species N :   atomic orbital   2 s accepted.
  | Species N :   atomic orbital   2 p accepted.
  | Species N :    hydro orbital   2 p accepted.
  | Species N :    hydro orbital   3 d accepted.
  | Species Na :   atomic orbital   1 s accepted.
  | Species Na :   atomic orbital   2 s accepted.
  | Species Na :   atomic orbital   3 s accepted.
  | Species Na :    hydro orbital   3 s accepted.
  | Species Na :   atomic orbital   2 p accepted.
  | Species Na :    hydro orbital   2 p accepted.
  | Species Na :    hydro orbital   3 d accepted.
 
  Basis size parameters after reduction:
  | Total number of radial functions:       28
  | Total number of basis functions :       44
 
  Testing on-site integration grid accuracy.
  |  Species  Function  <phi|h_atom|phi> (log., in eV)  <phi|h_atom|phi> (rad., in eV)
           1        1                 -6.4664147733                 -6.4652229287
           1        2                 13.7099062243                 13.7158503352
           1        3                 25.2661739479                 25.2663166526
           2        4               -515.0295626295               -515.0294562738
           2        5                 15.1698434419                 15.1699322204
           2        6                -21.6038822677                -21.6039118105
           2        7                 -9.0211123392                 -9.0212703513
           2        8                  8.3047696391                  8.2854840999
           2        9                 45.8428042126                 45.8427461223
           3       10               -273.3876219275               -273.3875919935
           3       11                -10.7204647114                -10.7200987600
           3       12                 17.5782951169                 17.5752355738
           3       13                 -5.2222267978                 -5.2237454466
           3       14                  8.6866956289                  8.6634852742
           3       15                 27.4984676166                 27.4985577271
           4       16               -384.8770852102               -384.8770238661
           4       17                 12.5754985572                 12.5755902269
           4       18                -15.7673946340                -15.7673131149
           4       19                 -7.0647024644                 -7.0651952861
           4       20                  8.8117910312                  8.7928686445
           4       21                 35.9641313273                 35.9643080893
           5       22              -1034.6388015345              -1034.6384291541
           5       23                -56.3012341042                -56.3012327590
           5       24                 -2.3917926930                 -2.3919758404
           5       25                  4.7971360279                  4.7797727319
           5       26                -28.2196408420                -28.2196407991
           5       27                  0.6522078092                  0.6519032012
           5       28                 10.4290155204                 10.4290902731

  Preparing densities etc. for the partition functions (integrals / Hartree potential).

  Preparations completed.
  max(cpu_time)          :      0.184 s.
  Wall clock time (cpu1) :      0.186 s.
------------------------------------------------------------

------------------------------------------------------------
          Begin self-consistency loop: Initialization.

          Date     :  20170619, Time     :  162200.066
------------------------------------------------------------

  Initializing index lists of integration centers etc. from given atomic structure:
  | Number of centers in hartree potential         :         5
  | Number of centers in hartree multipole         :         5
  | Number of centers in electron density summation:         5
  | Number of centers in basis integrals           :         5
  | Number of centers in integrals                 :         5
  | Number of centers in hamiltonian               :         5
  Partitioning the integration grid into batches with maxmin method.
  | Maximal weight for a single point:     1.000
  | Minimal weight for a single point:     0.000
  | Number of batches:      448
  | Maximal batch size:     113
  | Minimal batch size:      53
  | Average batch size:      63.067
  | Standard deviation of batch sizes:      19.421
  Initializing partition tables, free-atom densities, potentials, etc. across the integration grid (initialize_grid_storage).
  | initialize_grid_storage: Actual outermost partition radius vs. multipole_radius_free
  | (-- VB: in principle, multipole_radius_free should be larger, hence this output)
  | Species        1: Confinement radius =              4.999999999999999 AA, multipole_radius_free =              5.054417573612229 AA.
  | Species        1: outer_partition_radius set to              5.054417573612229 AA .
  | Species        2: Confinement radius =              4.999999999999999 AA, multipole_radius_free =              5.048384829883283 AA.
  | Species        2: outer_partition_radius set to              5.048384829883283 AA .
  | Species        3: Confinement radius =              4.999999999999999 AA, multipole_radius_free =              5.019602836301480 AA.
  | Species        3: outer_partition_radius set to              5.019602836301480 AA .
  | Species        4: Confinement radius =              4.999999999999999 AA, multipole_radius_free =              5.043624274424571 AA.
  | Species        4: outer_partition_radius set to              5.043624274424571 AA .
  | Species        5: Confinement radius =              5.500000000000000 AA, multipole_radius_free =              5.563704032673898 AA.
  | Species        5: outer_partition_radius set to              5.563704032673898 AA .
  | Original list of interatomic distances with           5 x          5 entries is created.
  | Net number of integration points:    28254
  | of which are non-zero points    :    25881
  Obtaining max. number of non-zero basis functions in each batch (get_n_compute_maxes).
  | Maximal number of non-zero basis functions:       44 in task     0
  Selecting the method for density update.
  Loop over occupied states selected for charge density update.
  Integrating Hamiltonian matrix: batch-based integration.
  Time summed over all CPUs for integration: real work        0.182 s, elapsed        0.182 s
  Integrating overlap matrix.
  Time summed over all CPUs for integration: real work        0.077 s, elapsed        0.077 s

  Updating Kohn-Sham eigenvalues, eigenvectors, occupation numbers, and Fermi level.
  Solving generalized eigenproblem
  Updating Kohn-Sham eigenvalues and eigenfunctions.
  Transforming overlap matrix and checking for singularities.
  Overlap matrix is nonsingular:
  | Lowest eigenvalue:  0.162404E-01
  Solving real generalised eigenvalue problem by standard LAPACK (fast)
  Determining occupation numbers for Kohn-Sham eigenstates.
  | Chemical potential (Fermi level) in eV                 : -.94300960E+01
  | Error in electron count due to remaining E_F inaccuracy: 0.00000000E+00
  | Maximum occupation number of highest empty state:  0.00E+00

  Writing Kohn-Sham eigenvalues.

  State    Occupation    Eigenvalue [Ha]    Eigenvalue [eV]
      1       2.00000         -38.022275        -1034.63875
      2       2.00000         -14.264949         -388.16903
      3       2.00000          -2.069041          -56.30147
      4       2.00000          -1.037067          -28.22002
      5       2.00000          -1.037058          -28.21979
      6       2.00000          -1.037058          -28.21978
      7       2.00000          -0.953260          -25.93952
      8       2.00000          -0.574090          -15.62178
      9       2.00000          -0.573819          -15.61441
     10       2.00000          -0.410943          -11.18232
     11       0.00000          -0.096806           -2.63422
     12       0.00000          -0.047120           -1.28219
     13       0.00000           0.002663            0.07246
     14       0.00000           0.015284            0.41589
     15       0.00000           0.024644            0.67059
     16       0.00000           0.041067            1.11749
     17       0.00000           0.053967            1.46851
     18       0.00000           0.181959            4.95134
     19       0.00000           0.234130            6.37100
     20       0.00000           0.257940            7.01890
     21       0.00000           0.281878            7.67029

  Highest occupied state (VBM) at    -11.18231899 eV
  | Occupation number:      2.00000000

  Lowest unoccupied state (CBM) at    -2.63422217 eV
  | Occupation number:      0.00000000

  Overall HOMO-LUMO gap:      8.54809682 eV.
  Calculating total energy contributions from superposition of free atom densities.

  Total energy components:
  | Sum of eigenvalues            :        -119.95911932 Ha       -3264.25372014 eV
  | XC energy correction          :         -21.98039283 Ha        -598.11692089 eV
  | XC potential correction       :          28.29852000 Ha         770.04190842 eV
  | Free-atom electrostatic energy:        -105.42852463 Ha       -2868.85612089 eV
  | Hartree energy correction     :           0.00000000 Ha           0.00000000 eV
  | vdW energy correction         :           0.00000000 Ha           0.00000000 eV
  | Entropy correction            :           0.00000000 Ha           0.00000000 eV
  | ---------------------------
  | Total energy                  :        -219.06951679 Ha       -5961.18485350 eV
  | Total energy, T -> 0          :        -219.06951679 Ha       -5961.18485350 eV  <-- do not rely on this value for anything but (periodic) metals
  | Electronic free energy        :        -219.06951679 Ha       -5961.18485350 eV

  Derived energy quantities:
  | Kinetic energy                :         218.25684259 Ha        5939.07086355 eV
  | Electrostatic energy          :        -415.34596654 Ha      -11302.13879616 eV
  | Energy correction for multipole
  | error in Hartree potential    :           0.00000000 Ha           0.00000000 eV
  | Sum of eigenvalues per atom                           :        -652.85074403 eV
  | Total energy (T->0) per atom                          :       -1192.23697070 eV  <-- do not rely on this value for anything but (periodic) metals
  | Electronic free energy per atom                       :       -1192.23697070 eV
  Initialize hartree_potential_storage
  Max. number of atoms included in rho_multipole:            5

  End scf initialization - timings             :  max(cpu_time)    wall_clock(cpu1)
  | Time for scf. initialization               :        0.800 s           0.409 s
  | Boundary condition initialization          :        0.000 s           0.000 s
  | Integration                                :        0.520 s           0.260 s
  | Solution of K.-S. eqns.                    :        0.004 s           0.002 s
  | Grid partitioning                          :        0.088 s           0.052 s
  | Preloading free-atom quantities on grid    :        0.012 s           0.006 s
  | Free-atom superposition energy             :        0.052 s           0.027 s
  | Total energy evaluation                    :        0.000 s           0.000 s
------------------------------------------------------------

------------------------------------------------------------
          Begin self-consistency iteration #    1

  Date     :  20170619, Time     :  162200.475
------------------------------------------------------------
  Evaluating new KS density.
  Integration grid: deviation in total charge (<rho> - N_e) =  -7.105427E-15
  Pulay mixing of updated and previous charge densities.

  Evaluating partitioned Hartree potential by multipole expansion.
  | Analytical far-field extrapolation by fixed multipoles:
  | Hartree multipole sum: apparent total charge =   0.199659E+00
  Summing up the Hartree potential.
  Time summed over all CPUs for potential: real work        0.110 s, elapsed        0.110 s
  | RMS charge density error from multipole expansion :   0.182501E-02

  Integrating Hamiltonian matrix: batch-based integration.
  Time summed over all CPUs for integration: real work        0.203 s, elapsed        0.203 s

  Updating Kohn-Sham eigenvalues, eigenvectors, occupation numbers, and Fermi level.
  Solving generalized eigenproblem
  Updating Kohn-Sham eigenvalues and eigenfunctions.
  Solving real generalised eigenvalue problem by standard LAPACK (fast)
  Determining occupation numbers for Kohn-Sham eigenstates.
  | Chemical potential (Fermi level) in eV                 : -.53429198E+01
  | Error in electron count due to remaining E_F inaccuracy: 0.00000000E+00
  | Maximum occupation number of highest empty state:  0.00E+00

  Writing Kohn-Sham eigenvalues.

  State    Occupation    Eigenvalue [Ha]    Eigenvalue [eV]
      1       2.00000         -38.088618        -1036.44404
      2       2.00000         -14.120682         -384.24330
      3       2.00000          -2.132034          -58.01559
      4       2.00000          -1.099967          -29.93162
      5       2.00000          -1.099938          -29.93083
      6       2.00000          -1.099894          -29.92963
      7       2.00000          -0.898934          -24.46124
      8       2.00000          -0.530302          -14.43024
      9       2.00000          -0.528939          -14.39316
     10       2.00000          -0.352083           -9.58066
     11       0.00000          -0.132783           -3.61322
     12       0.00000          -0.059962           -1.63164
     13       0.00000          -0.023791           -0.64740
     14       0.00000          -0.017495           -0.47607
     15       0.00000           0.006933            0.18865
     16       0.00000           0.038600            1.05035
     17       0.00000           0.045304            1.23279
     18       0.00000           0.145703            3.96477
     19       0.00000           0.251893            6.85436
     20       0.00000           0.263275            7.16406
     21       0.00000           0.265922            7.23611

  Highest occupied state (VBM) at     -9.58065815 eV
  | Occupation number:      2.00000000

  Lowest unoccupied state (CBM) at    -3.61321834 eV
  | Occupation number:      0.00000000

  Overall HOMO-LUMO gap:      5.96743982 eV.

  Total energy components:
  | Sum of eigenvalues            :        -119.90277974 Ha       -3262.72064216 eV
  | XC energy correction          :         -22.05434877 Ha        -600.12936418 eV
  | XC potential correction       :          28.39539249 Ha         772.67794320 eV
  | Free-atom electrostatic energy:        -105.42852463 Ha       -2868.85612089 eV
  | Hartree energy correction     :           0.02957142 Ha           0.80467935 eV
  | vdW energy correction         :           0.00000000 Ha           0.00000000 eV
  | Entropy correction            :           0.00000000 Ha           0.00000000 eV
  | ---------------------------
  | Total energy                  :        -218.96068922 Ha       -5958.22350468 eV
  | Total energy, T -> 0          :        -218.96068922 Ha       -5958.22350468 eV  <-- do not rely on this value for anything but (periodic) metals
  | Electronic free energy        :        -218.96068922 Ha       -5958.22350468 eV

  Derived energy quantities:
  | Kinetic energy                :         218.81056380 Ha        5954.13838420 eV
  | Electrostatic energy          :        -415.71690425 Ha      -11312.23252470 eV
  | Energy correction for multipole
  | error in Hartree potential    :           0.00071140 Ha           0.01935811 eV
  | Sum of eigenvalues per atom                           :        -652.54412843 eV
  | Total energy (T->0) per atom                          :       -1191.64470094 eV  <-- do not rely on this value for anything but (periodic) metals
  | Electronic free energy per atom                       :       -1191.64470094 eV

  Self-consistency convergence accuracy:
  | Change of charge density      :  0.3272E+00
  | Change of sum of eigenvalues  :  0.1533E+01 eV
  | Change of total energy        :  0.2961E+01 eV

  End self-consistency iteration #     1       :  max(cpu_time)    wall_clock(cpu1)
  | Time for this iteration                    :        0.852 s           0.499 s
  | Charge density update                      :        0.332 s           0.167 s
  | Density mixing                             :        0.000 s           0.002 s
  | Hartree multipole update                   :        0.016 s           0.016 s
  | Hartree multipole summation                :        0.112 s           0.110 s
  | Integration                                :        0.388 s           0.203 s
  | Solution of K.-S. eqns.                    :        0.000 s           0.000 s
  | Total energy evaluation                    :        0.000 s           0.000 s
------------------------------------------------------------

------------------------------------------------------------
          Begin self-consistency iteration #    2

  Date     :  20170619, Time     :  162200.974
------------------------------------------------------------
  Evaluating new KS density.
  Integration grid: deviation in total charge (<rho> - N_e) =  -4.618528E-14
  Pulay mixing of updated and previous charge densities.

  Evaluating partitioned Hartree potential by multipole expansion.
  | Analytical far-field extrapolation by fixed multipoles:
  | Hartree multipole sum: apparent total charge =   0.463248E+00
  Summing up the Hartree potential.
  Time summed over all CPUs for potential: real work        0.115 s, elapsed        0.115 s
  | RMS charge density error from multipole expansion :   0.384490E-02

  Integrating Hamiltonian matrix: batch-based integration.
  Time summed over all CPUs for integration: real work        0.204 s, elapsed        0.204 s

  Updating Kohn-Sham eigenvalues, eigenvectors, occupation numbers, and Fermi level.
  Solving generalized eigenproblem
  Updating Kohn-Sham eigenvalues and eigenfunctions.
  Solving real generalised eigenvalue problem by standard LAPACK (fast)
  Determining occupation numbers for Kohn-Sham eigenstates.
  | Chemical potential (Fermi level) in eV                 : -.55317399E+01
  | Error in electron count due to remaining E_F inaccuracy: 0.00000000E+00
  | Maximum occupation number of highest empty state:  0.00E+00

  Highest occupied state (VBM) at     -8.63111076 eV
  | Occupation number:      2.00000000

  Lowest unoccupied state (CBM) at    -4.98361823 eV
  | Occupation number:      0.00000000

  Overall HOMO-LUMO gap:      3.64749254 eV.

  Total energy components:
  | Sum of eigenvalues            :        -120.31792157 Ha       -3274.01722611 eV
  | XC energy correction          :         -22.10830908 Ha        -601.59769891 eV
  | XC potential correction       :          28.46622068 Ha         774.60527607 eV
  | Free-atom electrostatic energy:        -105.42852463 Ha       -2868.85612089 eV
  | Hartree energy correction     :           0.48490005 Ha          13.19480168 eV
  | vdW energy correction         :           0.00000000 Ha           0.00000000 eV
  | Entropy correction            :           0.00000000 Ha           0.00000000 eV
  | ---------------------------
  | Total energy                  :        -218.90363455 Ha       -5956.67096816 eV
  | Total energy, T -> 0          :        -218.90363455 Ha       -5956.67096816 eV  <-- do not rely on this value for anything but (periodic) metals
  | Electronic free energy        :        -218.90363455 Ha       -5956.67096816 eV

  Derived energy quantities:
  | Kinetic energy                :         219.07145647 Ha        5961.23763505 eV
  | Electrostatic energy          :        -415.86678195 Ha      -11316.31090430 eV
  | Energy correction for multipole
  | error in Hartree potential    :           0.00073995 Ha           0.02013502 eV
  | Sum of eigenvalues per atom                           :        -654.80344522 eV
  | Total energy (T->0) per atom                          :       -1191.33419363 eV  <-- do not rely on this value for anything but (periodic) metals
  | Electronic free energy per atom                       :       -1191.33419363 eV

  Self-consistency convergence accuracy:
  | Change of charge density      :  0.1843E+00
  | Change of sum of eigenvalues  : -0.1130E+02 eV
  | Change of total energy        :  0.1553E+01 eV

  End self-consistency iteration #     2       :  max(cpu_time)    wall_clock(cpu1)
  | Time for this iteration                    :        0.916 s           0.518 s
  | Charge density update                      :        0.352 s           0.177 s
  | Density mixing                             :        0.008 s           0.005 s
  | Hartree multipole update                   :        0.032 s           0.016 s
  | Hartree multipole summation                :        0.116 s           0.115 s
  | Integration                                :        0.408 s           0.204 s
  | Solution of K.-S. eqns.                    :        0.000 s           0.001 s
  | Total energy evaluation                    :        0.000 s           0.000 s
------------------------------------------------------------

------------------------------------------------------------
          Begin self-consistency iteration #    3

  Date     :  20170619, Time     :  162201.492
------------------------------------------------------------
  Evaluating new KS density.
  Integration grid: deviation in total charge (<rho> - N_e) =   1.421085E-14
  Pulay mixing of updated and previous charge densities.

  Evaluating partitioned Hartree potential by multipole expansion.
  | Analytical far-field extrapolation by fixed multipoles:
  | Hartree multipole sum: apparent total charge =   0.877362E+00
  Summing up the Hartree potential.
  Time summed over all CPUs for potential: real work        0.123 s, elapsed        0.123 s
  | RMS charge density error from multipole expansion :   0.728541E-02

  Integrating Hamiltonian matrix: batch-based integration.
  Time summed over all CPUs for integration: real work        0.254 s, elapsed        0.254 s

  Updating Kohn-Sham eigenvalues, eigenvectors, occupation numbers, and Fermi level.
  Solving generalized eigenproblem
  Updating Kohn-Sham eigenvalues and eigenfunctions.
  Solving real generalised eigenvalue problem by standard LAPACK (fast)
  Determining occupation numbers for Kohn-Sham eigenstates.
  | Chemical potential (Fermi level) in eV                 : -.77691886E+01
  | Error in electron count due to remaining E_F inaccuracy: 0.00000000E+00
  | Maximum occupation number of highest empty state:  0.00E+00

  Highest occupied state (VBM) at     -9.42824940 eV
  | Occupation number:      2.00000000

  Lowest unoccupied state (CBM) at    -7.08478921 eV
  | Occupation number:      0.00000000

  Overall HOMO-LUMO gap:      2.34346020 eV.

  Total energy components:
  | Sum of eigenvalues            :        -121.95393243 Ha       -3318.53534668 eV
  | XC energy correction          :         -22.09169791 Ha        -601.14568596 eV
  | XC potential correction       :          28.44560988 Ha         774.04442773 eV
  | Free-atom electrostatic energy:        -105.42852463 Ha       -2868.85612089 eV
  | Hartree energy correction     :           2.15317447 Ha          58.59085850 eV
  | vdW energy correction         :           0.00000000 Ha           0.00000000 eV
  | Entropy correction            :           0.00000000 Ha           0.00000000 eV
  | ---------------------------
  | Total energy                  :        -218.87537061 Ha       -5955.90186729 eV
  | Total energy, T -> 0          :        -218.87537061 Ha       -5955.90186729 eV  <-- do not rely on this value for anything but (periodic) metals
  | Electronic free energy        :        -218.87537061 Ha       -5955.90186729 eV

  Derived energy quantities:
  | Kinetic energy                :         218.66250348 Ha        5950.10945805 eV
  | Electrostatic energy          :        -415.44617619 Ha      -11304.86563939 eV
  | Energy correction for multipole
  | error in Hartree potential    :          -0.00089947 Ha          -0.02447576 eV
  | Sum of eigenvalues per atom                           :        -663.70706934 eV
  | Total energy (T->0) per atom                          :       -1191.18037346 eV  <-- do not rely on this value for anything but (periodic) metals
  | Electronic free energy per atom                       :       -1191.18037346 eV

  Self-consistency convergence accuracy:
  | Change of charge density      :  0.1128E+00
  | Change of sum of eigenvalues  : -0.4452E+02 eV
  | Change of total energy        :  0.7691E+00 eV

  End self-consistency iteration #     3       :  max(cpu_time)    wall_clock(cpu1)
  | Time for this iteration                    :        1.088 s           0.658 s
  | Charge density update                      :        0.452 s           0.256 s
  | Density mixing                             :        0.008 s           0.008 s
  | Hartree multipole update                   :        0.016 s           0.016 s
  | Hartree multipole summation                :        0.116 s           0.123 s
  | Integration                                :        0.492 s           0.254 s
  | Solution of K.-S. eqns.                    :        0.004 s           0.001 s
  | Total energy evaluation                    :        0.000 s           0.000 s
------------------------------------------------------------

------------------------------------------------------------
          Begin self-consistency iteration #    4

  Date     :  20170619, Time     :  162202.150
------------------------------------------------------------
  Evaluating new KS density.
  Integration grid: deviation in total charge (<rho> - N_e) =   8.881784E-14
  Pulay mixing of updated and previous charge densities.

  Evaluating partitioned Hartree potential by multipole expansion.
  | Analytical far-field extrapolation by fixed multipoles:
  | Hartree multipole sum: apparent total charge =   0.968774E+00
  Summing up the Hartree potential.
  Time summed over all CPUs for potential: real work        0.116 s, elapsed        0.116 s
  | RMS charge density error from multipole expansion :   0.801862E-02

  Integrating Hamiltonian matrix: batch-based integration.
  Time summed over all CPUs for integration: real work        0.190 s, elapsed        0.190 s

  Updating Kohn-Sham eigenvalues, eigenvectors, occupation numbers, and Fermi level.
  Solving generalized eigenproblem
  Updating Kohn-Sham eigenvalues and eigenfunctions.
  Solving real generalised eigenvalue problem by standard LAPACK (fast)
  Determining occupation numbers for Kohn-Sham eigenstates.
  | Chemical potential (Fermi level) in eV                 : -.81954226E+01
  | Error in electron count due to remaining E_F inaccuracy: 0.00000000E+00
  | Maximum occupation number of highest empty state:  0.00E+00

  Highest occupied state (VBM) at     -9.41549849 eV
  | Occupation number:      2.00000000

  Lowest unoccupied state (CBM) at    -7.41578362 eV
  | Occupation number:      0.00000000

  Overall HOMO-LUMO gap:      1.99971487 eV.

  Total energy components:
  | Sum of eigenvalues            :        -122.21478888 Ha       -3325.63361181 eV
  | XC energy correction          :         -22.10144902 Ha        -601.41102733 eV
  | XC potential correction       :          28.45889113 Ha         774.40582893 eV
  | Free-atom electrostatic energy:        -105.42852463 Ha       -2868.85612089 eV
  | Hartree energy correction     :           2.41155353 Ha          65.62171026 eV
  | vdW energy correction         :           0.00000000 Ha           0.00000000 eV
  | Entropy correction            :           0.00000000 Ha           0.00000000 eV
  | ---------------------------
  | Total energy                  :        -218.87431787 Ha       -5955.87322083 eV
  | Total energy, T -> 0          :        -218.87431787 Ha       -5955.87322083 eV  <-- do not rely on this value for anything but (periodic) metals
  | Electronic free energy        :        -218.87431787 Ha       -5955.87322083 eV

  Derived energy quantities:
  | Kinetic energy                :         218.64192511 Ha        5949.54949194 eV
  | Electrostatic energy          :        -415.41479396 Ha      -11304.01168544 eV
  | Energy correction for multipole
  | error in Hartree potential    :          -0.00115914 Ha          -0.03154175 eV
  | Sum of eigenvalues per atom                           :        -665.12672236 eV
  | Total energy (T->0) per atom                          :       -1191.17464417 eV  <-- do not rely on this value for anything but (periodic) metals
  | Electronic free energy per atom                       :       -1191.17464417 eV

  Self-consistency convergence accuracy:
  | Change of charge density      :  0.2033E-01
  | Change of sum of eigenvalues  : -0.7098E+01 eV
  | Change of total energy        :  0.2865E-01 eV

  End self-consistency iteration #     4       :  max(cpu_time)    wall_clock(cpu1)
  | Time for this iteration                    :        0.900 s           0.526 s
  | Charge density update                      :        0.364 s           0.189 s
  | Density mixing                             :        0.020 s           0.013 s
  | Hartree multipole update                   :        0.020 s           0.017 s
  | Hartree multipole summation                :        0.116 s           0.117 s
  | Integration                                :        0.380 s           0.190 s
  | Solution of K.-S. eqns.                    :        0.000 s           0.000 s
  | Total energy evaluation                    :        0.000 s           0.000 s
------------------------------------------------------------

------------------------------------------------------------
          Begin self-consistency iteration #    5

  Date     :  20170619, Time     :  162202.677
------------------------------------------------------------
  Evaluating new KS density.
  Integration grid: deviation in total charge (<rho> - N_e) =  -1.065814E-14
  Pulay mixing of updated and previous charge densities.

  Evaluating partitioned Hartree potential by multipole expansion.
  | Analytical far-field extrapolation by fixed multipoles:
  | Hartree multipole sum: apparent total charge =   0.987339E+00
  Summing up the Hartree potential.
  Time summed over all CPUs for potential: real work        0.114 s, elapsed        0.114 s
  | RMS charge density error from multipole expansion :   0.801161E-02

  Integrating Hamiltonian matrix: batch-based integration.
  Time summed over all CPUs for integration: real work        0.180 s, elapsed        0.180 s

  Updating Kohn-Sham eigenvalues, eigenvectors, occupation numbers, and Fermi level.
  Solving generalized eigenproblem
  Updating Kohn-Sham eigenvalues and eigenfunctions.
  Solving real generalised eigenvalue problem by standard LAPACK (fast)
  Determining occupation numbers for Kohn-Sham eigenstates.
  | Chemical potential (Fermi level) in eV                 : -.81959783E+01
  | Error in electron count due to remaining E_F inaccuracy: 0.00000000E+00
  | Maximum occupation number of highest empty state:  0.00E+00

  Highest occupied state (VBM) at     -9.54220272 eV
  | Occupation number:      2.00000000

  Lowest unoccupied state (CBM) at    -7.38947643 eV
  | Occupation number:      0.00000000

  Overall HOMO-LUMO gap:      2.15272629 eV.

  Total energy components:
  | Sum of eigenvalues            :        -122.27568709 Ha       -3327.29073633 eV
  | XC energy correction          :         -22.09868248 Ha        -601.33574583 eV
  | XC potential correction       :          28.45557733 Ha         774.31565580 eV
  | Free-atom electrostatic energy:        -105.42852463 Ha       -2868.85612089 eV
  | Hartree energy correction     :           2.47301773 Ha          67.29423636 eV
  | vdW energy correction         :           0.00000000 Ha           0.00000000 eV
  | Entropy correction            :           0.00000000 Ha           0.00000000 eV
  | ---------------------------
  | Total energy                  :        -218.87429913 Ha       -5955.87271089 eV
  | Total energy, T -> 0          :        -218.87429913 Ha       -5955.87271089 eV  <-- do not rely on this value for anything but (periodic) metals
  | Electronic free energy        :        -218.87429913 Ha       -5955.87271089 eV

  Derived energy quantities:
  | Kinetic energy                :         218.65157252 Ha        5949.81201124 eV
  | Electrostatic energy          :        -415.42718917 Ha      -11304.34897631 eV
  | Energy correction for multipole
  | error in Hartree potential    :          -0.00133391 Ha          -0.03629749 eV
  | Sum of eigenvalues per atom                           :        -665.45814727 eV
  | Total energy (T->0) per atom                          :       -1191.17454218 eV  <-- do not rely on this value for anything but (periodic) metals
  | Electronic free energy per atom                       :       -1191.17454218 eV

  Self-consistency convergence accuracy:
  | Change of charge density      :  0.7563E-02
  | Change of sum of eigenvalues  : -0.1657E+01 eV
  | Change of total energy        :  0.5099E-03 eV

  End self-consistency iteration #     5       :  max(cpu_time)    wall_clock(cpu1)
  | Time for this iteration                    :        0.888 s           0.522 s
  | Charge density update                      :        0.352 s           0.182 s
  | Density mixing                             :        0.032 s           0.018 s
  | Hartree multipole update                   :        0.028 s           0.028 s
  | Hartree multipole summation                :        0.116 s           0.114 s
  | Integration                                :        0.360 s           0.180 s
  | Solution of K.-S. eqns.                    :        0.000 s           0.000 s
  | Total energy evaluation                    :        0.000 s           0.000 s
------------------------------------------------------------

------------------------------------------------------------
          Begin self-consistency iteration #    6

  Date     :  20170619, Time     :  162203.199
------------------------------------------------------------
  Evaluating new KS density.
  Integration grid: deviation in total charge (<rho> - N_e) =   1.065814E-14
  Pulay mixing of updated and previous charge densities.

  Evaluating partitioned Hartree potential by multipole expansion.
  | Analytical far-field extrapolation by fixed multipoles:
  | Hartree multipole sum: apparent total charge =   0.995192E+00
  Summing up the Hartree potential.
  Time summed over all CPUs for potential: real work        0.117 s, elapsed        0.117 s
  | RMS charge density error from multipole expansion :   0.809842E-02

  Integrating Hamiltonian matrix: batch-based integration.
  Time summed over all CPUs for integration: real work        0.182 s, elapsed        0.182 s

  Updating Kohn-Sham eigenvalues, eigenvectors, occupation numbers, and Fermi level.
  Solving generalized eigenproblem
  Updating Kohn-Sham eigenvalues and eigenfunctions.
  Solving real generalised eigenvalue problem by standard LAPACK (fast)
  Determining occupation numbers for Kohn-Sham eigenstates.
  | Chemical potential (Fermi level) in eV                 : -.81957349E+01
  | Error in electron count due to remaining E_F inaccuracy: 0.00000000E+00
  | Maximum occupation number of highest empty state:  0.00E+00

  Highest occupied state (VBM) at     -9.53245608 eV
  | Occupation number:      2.00000000

  Lowest unoccupied state (CBM) at    -7.36317738 eV
  | Occupation number:      0.00000000

  Overall HOMO-LUMO gap:      2.16927870 eV.

  Total energy components:
  | Sum of eigenvalues            :        -122.30164127 Ha       -3327.99698546 eV
  | XC energy correction          :         -22.09992043 Ha        -601.36943218 eV
  | XC potential correction       :          28.45718493 Ha         774.35940091 eV
  | Free-atom electrostatic energy:        -105.42852463 Ha       -2868.85612089 eV
  | Hartree energy correction     :           2.49858496 Ha          67.98995593 eV
  | vdW energy correction         :           0.00000000 Ha           0.00000000 eV
  | Entropy correction            :           0.00000000 Ha           0.00000000 eV
  | ---------------------------
  | Total energy                  :        -218.87431643 Ha       -5955.87318169 eV
  | Total energy, T -> 0          :        -218.87431643 Ha       -5955.87318169 eV  <-- do not rely on this value for anything but (periodic) metals
  | Electronic free energy        :        -218.87431643 Ha       -5955.87318169 eV

  Derived energy quantities:
  | Kinetic energy                :         218.64513569 Ha        5949.63685638 eV
  | Electrostatic energy          :        -415.41953170 Ha      -11304.14060589 eV
  | Energy correction for multipole
  | error in Hartree potential    :          -0.00133851 Ha          -0.03642277 eV
  | Sum of eigenvalues per atom                           :        -665.59939709 eV
  | Total energy (T->0) per atom                          :       -1191.17463634 eV  <-- do not rely on this value for anything but (periodic) metals
  | Electronic free energy per atom                       :       -1191.17463634 eV

  Self-consistency convergence accuracy:
  | Change of charge density      :  0.2165E-02
  | Change of sum of eigenvalues  : -0.7062E+00 eV
  | Change of total energy        : -0.4708E-03 eV

  End self-consistency iteration #     6       :  max(cpu_time)    wall_clock(cpu1)
  | Time for this iteration                    :        0.876 s           0.501 s
  | Charge density update                      :        0.336 s           0.168 s
  | Density mixing                             :        0.032 s           0.017 s
  | Hartree multipole update                   :        0.028 s           0.015 s
  | Hartree multipole summation                :        0.116 s           0.117 s
  | Integration                                :        0.364 s           0.182 s
  | Solution of K.-S. eqns.                    :        0.000 s           0.001 s
  | Total energy evaluation                    :        0.000 s           0.000 s
------------------------------------------------------------

------------------------------------------------------------
          Begin self-consistency iteration #    7

  Date     :  20170619, Time     :  162203.700
------------------------------------------------------------
  Evaluating new KS density.
  Integration grid: deviation in total charge (<rho> - N_e) =  -2.131628E-14
  Pulay mixing of updated and previous charge densities.

  Evaluating partitioned Hartree potential by multipole expansion.
  | Analytical far-field extrapolation by fixed multipoles:
  | Hartree multipole sum: apparent total charge =   0.998137E+00
  Summing up the Hartree potential.
  Time summed over all CPUs for potential: real work        0.111 s, elapsed        0.111 s
  | RMS charge density error from multipole expansion :   0.808837E-02

  Integrating Hamiltonian matrix: batch-based integration.
  Time summed over all CPUs for integration: real work        0.183 s, elapsed        0.183 s

  Updating Kohn-Sham eigenvalues, eigenvectors, occupation numbers, and Fermi level.
  Solving generalized eigenproblem
  Updating Kohn-Sham eigenvalues and eigenfunctions.
  Solving real generalised eigenvalue problem by standard LAPACK (fast)
  Determining occupation numbers for Kohn-Sham eigenstates.
  | Chemical potential (Fermi level) in eV                 : -.81749056E+01
  | Error in electron count due to remaining E_F inaccuracy: 0.00000000E+00
  | Maximum occupation number of highest empty state:  0.00E+00

  Highest occupied state (VBM) at     -9.55662332 eV
  | Occupation number:      2.00000000

  Lowest unoccupied state (CBM) at    -7.32683165 eV
  | Occupation number:      0.00000000

  Overall HOMO-LUMO gap:      2.22979166 eV.

  Total energy components:
  | Sum of eigenvalues            :        -122.31050345 Ha       -3328.23813789 eV
  | XC energy correction          :         -22.09953559 Ha        -601.35896030 eV
  | XC potential correction       :          28.45673762 Ha         774.34722904 eV
  | Free-atom electrostatic energy:        -105.42852463 Ha       -2868.85612089 eV
  | Hartree energy correction     :           2.50751059 Ha          68.23283470 eV
  | vdW energy correction         :           0.00000000 Ha           0.00000000 eV
  | Entropy correction            :           0.00000000 Ha           0.00000000 eV
  | ---------------------------
  | Total energy                  :        -218.87431547 Ha       -5955.87315535 eV
  | Total energy, T -> 0          :        -218.87431547 Ha       -5955.87315535 eV  <-- do not rely on this value for anything but (periodic) metals
  | Electronic free energy        :        -218.87431547 Ha       -5955.87315535 eV

  Derived energy quantities:
  | Kinetic energy                :         218.64928038 Ha        5949.74963897 eV
  | Electrostatic energy          :        -415.42406025 Ha      -11304.26383402 eV
  | Energy correction for multipole
  | error in Hartree potential    :          -0.00136318 Ha          -0.03709409 eV
  | Sum of eigenvalues per atom                           :        -665.64762758 eV
  | Total energy (T->0) per atom                          :       -1191.17463107 eV  <-- do not rely on this value for anything but (periodic) metals
  | Electronic free energy per atom                       :       -1191.17463107 eV

  Self-consistency convergence accuracy:
  | Change of charge density      :  0.1855E-02
  | Change of sum of eigenvalues  : -0.2412E+00 eV
  | Change of total energy        :  0.2633E-04 eV

  End self-consistency iteration #     7       :  max(cpu_time)    wall_clock(cpu1)
  | Time for this iteration                    :        0.876 s           0.507 s
  | Charge density update                      :        0.344 s           0.176 s
  | Density mixing                             :        0.040 s           0.021 s
[...]

  atomic forces [eV/Ang]:
  -----------------------
  atom #    1
   Hellmann-Feynman              :  0.605781E+00  0.605685E-01  0.110284E+00
   Ionic forces                  :  0.000000E+00  0.000000E+00  0.000000E+00
   Multipole                     : -0.100591E-02 -0.543426E-02  0.500609E-02
   Pulay + GGA                   : -0.528261E+00 -0.511766E-01 -0.751657E-01
   Van der Waals                 :  0.000000E+00  0.000000E+00  0.000000E+00
   ----------------------------------------------------------------
   Total forces(   1)            :  0.765145E-01  0.395765E-02  0.401240E-01
  atom #    2
   Hellmann-Feynman              :  0.130249E+02  0.171944E+00 -0.254637E+00
   Ionic forces                  :  0.000000E+00  0.000000E+00  0.000000E+00
   Multipole                     : -0.312563E+00  0.403610E-02 -0.685973E-01
   Pulay + GGA                   : -0.132969E+02 -0.114565E+00 -0.125933E+00
   Van der Waals                 :  0.000000E+00  0.000000E+00  0.000000E+00
   ----------------------------------------------------------------
   Total forces(   2)            : -0.584507E+00  0.614146E-01 -0.449167E+00
  atom #    3
   Hellmann-Feynman              : -0.518443E-02  0.490308E+00  0.516993E+00
   Ionic forces                  :  0.000000E+00  0.000000E+00  0.000000E+00
   Multipole                     : -0.156691E-01 -0.314334E-01 -0.949758E-02
   Pulay + GGA                   :  0.117385E+00  0.553330E-01  0.199742E+00
   Van der Waals                 :  0.000000E+00  0.000000E+00  0.000000E+00
   ----------------------------------------------------------------
   Total forces(   3)            :  0.965320E-01  0.514207E+00  0.707237E+00
  atom #    4
   Hellmann-Feynman              :  0.930840E-01  0.667857E-01 -0.695090E+00
   Ionic forces                  :  0.000000E+00  0.000000E+00  0.000000E+00
   Multipole                     : -0.325911E-01 -0.551568E-02  0.472836E-01
   Pulay + GGA                   :  0.203948E+00  0.256786E-01 -0.166420E+00
   Van der Waals                 :  0.000000E+00  0.000000E+00  0.000000E+00
   ----------------------------------------------------------------
   Total forces(   4)            :  0.264441E+00  0.869486E-01 -0.814227E+00
  atom #    5
   Hellmann-Feynman              :  0.308378E-01 -0.611411E+00  0.363339E+00
   Ionic forces                  :  0.000000E+00  0.000000E+00  0.000000E+00
   Multipole                     : -0.170939E-01  0.341674E-01 -0.650452E-02
   Pulay + GGA                   :  0.136005E+00 -0.927428E-01  0.160531E+00
   Van der Waals                 :  0.000000E+00  0.000000E+00  0.000000E+00
   ----------------------------------------------------------------
   Total forces(   5)            :  0.149749E+00 -0.669986E+00  0.517365E+00


  Self-consistency convergence accuracy:
  | Change of charge density      :  0.2062E-05
  | Change of sum of eigenvalues  : -0.1869E-03 eV
  | Change of total energy        : -0.8973E-07 eV
  | Change of forces              :  0.2635E-03 eV/A

  Writing Kohn-Sham eigenvalues.

  State    Occupation    Eigenvalue [Ha]    Eigenvalue [eV]
      1       2.00000         -38.328767        -1042.97883
      2       2.00000         -14.118544         -384.18512
      3       2.00000          -2.370135          -64.49464
      4       2.00000          -1.337234          -36.38800
      5       2.00000          -1.337191          -36.38682
      6       2.00000          -1.337018          -36.38210
      7       2.00000          -0.897661          -24.42660
      8       2.00000          -0.540283          -14.70184
      9       2.00000          -0.537159          -14.61684
     10       2.00000          -0.351352           -9.56078
     11       0.00000          -0.268974           -7.31915
     12       0.00000          -0.161253           -4.38793
     13       0.00000          -0.145157           -3.94993
     14       0.00000          -0.142426           -3.87561
     15       0.00000          -0.079550           -2.16465
     16       0.00000          -0.017530           -0.47701
     17       0.00000          -0.002792           -0.07596
     18       0.00000           0.034220            0.93119
     19       0.00000           0.136212            3.70652
     20       0.00000           0.155653            4.23554
     21       0.00000           0.163683            4.45405

  Highest occupied state (VBM) at     -9.56078151 eV
  | Occupation number:      2.00000000

  Lowest unoccupied state (CBM) at    -7.31915131 eV
  | Occupation number:      0.00000000

  Overall HOMO-LUMO gap:      2.24163019 eV.

  Self-consistency cycle converged.

  End self-consistency iteration #    12       :  max(cpu_time)    wall_clock(cpu1)
  | Time for this iteration                    :        1.568 s           1.187 s
  | Charge density & force component update    :        0.772 s           0.575 s
  | Density mixing                             :        0.024 s           0.023 s
  | Hartree multipole update                   :        0.012 s           0.014 s
  | Hartree multipole summation                :        0.392 s           0.392 s
  | Integration                                :        0.364 s           0.182 s
  | Solution of K.-S. eqns.                    :        0.000 s           0.000 s
  | Total energy evaluation                    :        0.004 s           0.001 s
------------------------------------------------------------
  Obtaining max. number of non-zero basis functions in each batch .
  Evaluating KS electron density on previously omitted grid points.
  Evaluating non-empirical van der Waals correction (Tkatchenko/Scheffler 2009).
  Performing Hirshfeld analysis of fragment charges and moments.
  ----------------------------------------------------------------------
  | Atom     1: Na
  |   Hirshfeld charge        :      0.97057738
  |   Free atom volume        :     83.41506493
  |   Hirshfeld volume        :     12.90092774
  |   Hirshfeld dipole vector :     -0.00108930       0.00137504      -0.06661172
  |   Hirshfeld dipole moment :      0.06663482
  |   Hirshfeld second moments:      1.46521583      -0.00053164      -0.00587630
  |                                 -0.00053164       1.47161557       0.00244153
  |                                 -0.00587630       0.00244153       1.32785336
  ----------------------------------------------------------------------
  | Atom     2: N
  |   Hirshfeld charge        :     -0.28864499
  |   Free atom volume        :     29.48786712
  |   Hirshfeld volume        :     25.20493827
  |   Hirshfeld dipole vector :     -0.09669163       0.00006068       0.02045065
  |   Hirshfeld dipole moment :      0.09883069
  |   Hirshfeld second moments:     -0.05267966       0.00020645       0.00028244
  |                                  0.00020645       0.11379244       0.00047859
  |                                  0.00028244       0.00047859       0.11560667
  ----------------------------------------------------------------------
  | Atom     3: H
  |   Hirshfeld charge        :      0.09197279
  |   Free atom volume        :      9.95022855
  |   Hirshfeld volume        :      5.84017299
  |   Hirshfeld dipole vector :     -0.03800865      -0.08339816      -0.06106336
  |   Hirshfeld dipole moment :      0.11013013
  |   Hirshfeld second moments:      0.08747835      -0.00596948      -0.00423767
  |                                 -0.00596948       0.11567688      -0.01140275
  |                                 -0.00423767      -0.01140275       0.12874553
  ----------------------------------------------------------------------
  | Atom     4: H
  |   Hirshfeld charge        :      0.12732514
  |   Free atom volume        :      9.95022855
  |   Hirshfeld volume        :      5.74278778
  |   Hirshfeld dipole vector :     -0.04163408      -0.01349316       0.11312860
  |   Hirshfeld dipole moment :      0.12129939
  |   Hirshfeld second moments:      0.09599539      -0.00049413       0.00534185
  |                                 -0.00049413       0.13979577       0.00291835
  |                                  0.00534185       0.00291835       0.11590050
  ----------------------------------------------------------------------
  | Atom     5: H
  |   Hirshfeld charge        :      0.09806848
  |   Free atom volume        :      9.95022855
  |   Hirshfeld volume        :      5.82801903
  |   Hirshfeld dipole vector :     -0.03888622       0.09785251      -0.03768963
  |   Hirshfeld dipole moment :      0.11183810
  |   Hirshfeld second moments:      0.08835495       0.00644839      -0.00224336
  |                                  0.00644839       0.11148702       0.00779197
  |                                 -0.00224336       0.00779197       0.13476813
  ----------------------------------------------------------------------


  Total energy components:
  | Sum of eigenvalues            :        -122.31068748 Ha       -3328.24314537 eV
  | XC energy correction          :         -22.09954473 Ha        -601.35920883 eV
  | XC potential correction       :          28.45675821 Ha         774.34778940 eV
  | Free-atom electrostatic energy:        -105.42852463 Ha       -2868.85612089 eV
  | Hartree energy correction     :           2.50768359 Ha          68.23754246 eV
  | vdW energy correction         :          -0.00023396 Ha          -0.00636632 eV
  | Entropy correction            :           0.00000000 Ha           0.00000000 eV
  | ---------------------------
  | Total energy                  :        -218.87454898 Ha       -5955.87950956 eV
  | Total energy, T -> 0          :        -218.87454898 Ha       -5955.87950956 eV  <-- do not rely on this value for anything but (periodic) metals
  | Electronic free energy        :        -218.87454898 Ha       -5955.87950956 eV

  Derived energy quantities:
  | Kinetic energy                :         218.65091028 Ha        5949.79399086 eV
  | Electrostatic energy          :        -415.42568057 Ha      -11304.30792526 eV
  | Energy correction for multipole
  | error in Hartree potential    :          -0.00136220 Ha          -0.03706733 eV
  | Sum of eigenvalues per atom                           :        -665.64862907 eV
  | Total energy (T->0) per atom                          :       -1191.17590191 eV  <-- do not rely on this value for anything but (periodic) metals
  | Electronic free energy per atom                       :       -1191.17590191 eV

  atomic forces [eV/Ang]:
  -----------------------
  atom #    1
   Hellmann-Feynman              :  0.605781E+00  0.605685E-01  0.110284E+00
   Ionic forces                  :  0.000000E+00  0.000000E+00  0.000000E+00
   Multipole                     : -0.100591E-02 -0.543426E-02  0.500609E-02
   Pulay + GGA                   : -0.528261E+00 -0.511766E-01 -0.751657E-01
   Van der Waals                 : -0.482050E-03 -0.248118E-03  0.958620E-02
   ----------------------------------------------------------------
   Total forces(   1)            :  0.760324E-01  0.370953E-02  0.497102E-01
  atom #    2
   Hellmann-Feynman              :  0.130249E+02  0.171944E+00 -0.254637E+00
   Ionic forces                  :  0.000000E+00  0.000000E+00  0.000000E+00
   Multipole                     : -0.312563E+00  0.403610E-02 -0.685973E-01
   Pulay + GGA                   : -0.132969E+02 -0.114565E+00 -0.125933E+00
   Van der Waals                 : -0.509824E-04  0.523623E-09 -0.360916E-02
   ----------------------------------------------------------------
   Total forces(   2)            : -0.584558E+00  0.614146E-01 -0.452776E+00
  atom #    3
   Hellmann-Feynman              : -0.518443E-02  0.490308E+00  0.516993E+00
   Ionic forces                  :  0.000000E+00  0.000000E+00  0.000000E+00
   Multipole                     : -0.156691E-01 -0.314334E-01 -0.949758E-02
   Pulay + GGA                   :  0.117385E+00  0.553330E-01  0.199742E+00
   Van der Waals                 :  0.324500E-03  0.462120E-03 -0.371339E-02
   ----------------------------------------------------------------
   Total forces(   3)            :  0.968565E-01  0.514670E+00  0.703524E+00
  atom #    4
   Hellmann-Feynman              :  0.930840E-01  0.667857E-01 -0.695090E+00
   Ionic forces                  :  0.000000E+00  0.000000E+00  0.000000E+00
   Multipole                     : -0.325911E-01 -0.551568E-02  0.472836E-01
   Pulay + GGA                   :  0.203948E+00  0.256786E-01 -0.166420E+00
   Van der Waals                 :  0.161308E-04 -0.442115E-04  0.964059E-04
   ----------------------------------------------------------------
   Total forces(   4)            :  0.264457E+00  0.869044E-01 -0.814130E+00
  atom #    5
   Hellmann-Feynman              :  0.308378E-01 -0.611411E+00  0.363339E+00
   Ionic forces                  :  0.000000E+00  0.000000E+00  0.000000E+00
   Multipole                     : -0.170939E-01  0.341674E-01 -0.650452E-02
   Pulay + GGA                   :  0.136005E+00 -0.927428E-01  0.160531E+00
   Van der Waals                 :  0.192402E-03 -0.169791E-03 -0.236006E-02
   ----------------------------------------------------------------
   Total forces(   5)            :  0.149941E+00 -0.670156E+00  0.515005E+00

  Timings for VdW correction (Tkatchenko-Scheffler 2009 or later):
  | CPU time:        0.068 s, Wall clock time:        0.036 s.
  Removing unitary transformations (pure translations, rotations) from forces on atoms.
  Atomic forces before filtering:
  | Net force on center of mass :   0.272931E-02 -0.345783E-02  0.133259E-02 eV/A
  | Net torque on center of mass:   0.134166E-02  0.124497E-02 -0.110809E-02 eV
  Atomic forces after filtering:
  | Net force on center of mass :  -0.223008E-16 -0.892031E-16 -0.892031E-16 eV/A
  | Net torque on center of mass:  -0.944085E-16  0.472042E-16  0.708063E-16 eV

  Energy and forces in a compact form:
  | Total energy uncorrected      :         -0.595587950955531E+04 eV
  | Total energy corrected        :         -0.595587950955531E+04 eV  <-- do not rely on this value for anything but (periodic) metals
  | Electronic free energy        :         -0.595587950955531E+04 eV
  Total atomic forces (unitary forces cleaned) [eV/Ang]:
  |   1          0.757639838846584E-01          0.415086713133252E-02          0.494593102449476E-01
  |   2         -0.585172927712758E+00          0.623946560697775E-01         -0.453021063249092E+00
  |   3          0.968820420935260E-01          0.515277340096012E+00          0.703338243883033E+00
  |   4          0.263851716916878E+00          0.876996465828968E-01         -0.814394281782743E+00
  |   5          0.148675184817696E+00         -0.669522509880019E+00          0.514617790903854E+00

  ------------------------------------ 
  Start decomposition of the XC Energy 
  ------------------------------------ 
  Hartree-Fock part   :          0.000000000 Ha              0.000000000 eV
  ------------------------------------ 
  X Energy            :        -21.424233519 Ha           -582.983055903 eV
  C Energy GGA        :         -0.675311208 Ha            -18.376152930 eV
  Total XC Energy     :        -22.099544727 Ha           -601.359208833 eV
  LDA X and C from self-consistent density 
  X Energy LDA        :        -19.547692972 Ha           -531.919789545 eV
  C Energy LDA        :         -1.403730898 Ha            -38.197461195 eV
  ------------------------------------ 
  End decomposition of the XC Energy 
  ------------------------------------ 

------------------------------------------------------------------------------
  Final output of selected total energy values:

  The following output summarizes some interesting total energy values
  at the end of a run (AFTER all relaxation, molecular dynamics, etc.).

  | Total energy of the DFT / Hartree-Fock s.c.f. calculation      :          -5955.879509555 eV
  | Final zero-broadening corrected energy (caution - metals only) :          -5955.879509555 eV
  | For reference only, the value of 1 Hartree used in FHI-aims is :             27.211384500 eV

  Before relying on these values, please be sure to understand exactly which
  total energy value is referred to by a given number. Different objects may
  all carry the same name 'total energy'. Definitions:

  Total energy of the DFT / Hartree-Fock s.c.f. calculation:
  | Note that this energy does not include ANY quantities calculated after the
  | s.c.f. cycle, in particular not ANY RPA, MP2, etc. many-body perturbation terms.

  Final zero-broadening corrected energy:
  | For metallic systems only, a broadening of the occupation numbers at the Fermi
  | level can be extrapolated back to zero broadening by an electron-gas inspired
  | formula. For all systems that are not real metals, this value can be
  | meaningless and should be avoided.

------------------------------------------------------------------------------
  Methods described in the following list of references were used in this FHI-aims run.
  If you publish the results, please make sure to cite these reference if they apply.
  FHI-aims is an academic code, and for our developers (often, Ph.D. students
  and postdocs), scientific credit in the community is essential.
  Thank you for helping us!

  For any use of FHI-aims, please cite:

    Volker Blum, Ralf Gehrke, Felix Hanke, Paula Havu, Ville Havu,
    Xinguo Ren, Karsten Reuter, and Matthias Scheffler
    'Ab initio molecular simulations with numeric atom-centered orbitals'
    Computer Physics Communications 180, 2175-2196 (2009)
    http://dx.doi.org/10.1016/j.cpc.2009.06.022


  For the real-space grid partitioning and parallelization used in this calculation, please cite:

    Ville Havu, Volker Blum, Paula Havu, and Matthias Scheffler,
    'Efficient O(N) integration for all-electron electronic structure calculation'
    'using numerically tabulated basis functions'
    Journal of Computational Physics 228, 8367-8379 (2009).
    http://dx.doi.org/10.1016/j.jcp.2009.08.008

  Of course, there are many other important community references, e.g., those cited in the
  above references. Our list is limited to references that describe implementations in the
  FHI-aims code. The reason is purely practical (length of this list) - please credit others as well.

------------------------------------------------------------
          Leaving FHI-aims.
          Date     :  20170619, Time     :  162207.798

          Computational steps:
          | Number of self-consistency cycles          :           12

          Detailed time accounting                     :  max(cpu_time)    wall_clock(cpu1)
          | Total time                                 :       12.940 s           7.921 s
          | Preparation time                           :        0.184 s           0.186 s
          | Grid partitioning                          :        0.088 s           0.052 s
          | Preloading free-atom quantities on grid    :        0.012 s           0.006 s
          | Free-atom superposition energy             :        0.052 s           0.027 s
          | Total time for integrations                :        5.140 s           2.589 s
          | Total time for solution of K.-S. equations :        0.012 s           0.006 s
          | Total time for density & force components  :        4.692 s           2.590 s
          | Total time for mixing                      :        0.340 s           0.205 s
          | Total time for Hartree multipole update    :        0.236 s           0.202 s
          | Total time for Hartree multipole sum       :        1.928 s           1.933 s
          | Total time for total energy evaluation     :        0.004 s           0.002 s
          | Total time for scaled ZORA corrections     :        0.000 s           0.000 s
          | Total time for vdW correction              :        0.068 s           0.036 s

          Have a nice day.
------------------------------------------------------------
