xc                 pbe
vdw_correction_hirshfeld
relativistic       atomic_zora scalar
charge             1.0
sc_accuracy_rho    1E-3
sc_accuracy_eev    1E-2
sc_accuracy_etot   1E-5
sc_accuracy_forces 5E-3
sc_iter_limit      1000
relax_geometry trm 5E-2
