14
Iteration: 0
Ca      0.0   0.0   0.0 
O     -3.4420   -2.7874   -0.7062 
C     -3.3238   -2.1916   -1.8100 
O     -2.0916   -2.2015   -2.4582 
C     -4.5154   -1.5219   -2.4402 
N     -5.2378   -0.7309   -1.4411 
C     -5.4317   -2.5654   -3.0898 
H     -1.9654   -1.7549   -3.3586 
H     -4.1556   -0.8330   -3.2361 
H     -5.7184   -1.3710   -0.7667 
H     -5.9830   -0.1808   -1.9275 
H     -5.8123   -3.2824   -2.3308 
H     -6.2963   -2.0632   -3.5733 
H     -4.8750   -3.1289   -3.8691 
14
Iteration: 1
Ca      0.00000000        0.00000000        0.00000000 
O     -3.39663908       -2.72223895       -0.69750445 
C     -3.33775176       -2.20256602       -1.80831754 
O     -2.09680047       -2.14839365       -2.42101255 
C     -4.53190526       -1.52711272       -2.45490036 
N     -5.20774958       -0.71479079       -1.43448446 
C     -5.42299764       -2.58941696       -3.11963692 
H     -2.07076952       -1.76418632       -3.33940446 
H     -4.17151853       -0.83312703       -3.23908984 
H     -5.67774975       -1.34570090       -0.76660233 
H     -5.95852402       -0.18358470       -1.89970564 
H     -5.80290017       -3.29166051       -2.35865471 
H     -6.28259055       -2.08491620       -3.59079402 
H     -4.89187209       -3.16501446       -3.89723324 
14
Iteration: 2
Ca      0.00000000        0.00000000        0.00000000 
O     -3.35716376       -2.68347751       -0.70083357 
C     -3.31671666       -2.12066182       -1.75265380 
O     -2.09622111       -2.08095209       -2.39219242 
C     -4.53641353       -1.52713394       -2.47228636 
N     -5.18863292       -0.69672009       -1.44618631 
C     -5.41014918       -2.61500958       -3.13596675 
H     -2.19484790       -1.75446830       -3.32362081 
H     -4.18350747       -0.83271224       -3.25193582 
H     -5.62773516       -1.31206697       -0.75907922 
H     -5.95395542       -0.19121531       -1.89049578 
H     -5.78780775       -3.31010341       -2.37727268 
H     -6.27132582       -2.13065988       -3.61123044 
H     -4.88912378       -3.19739498       -3.90599719 
14
Iteration: 3
Ca      0.00000000        0.00000000        0.00000000 
O     -3.32823261       -2.62483172       -0.66128781 
C     -3.31583617       -2.13549571       -1.76302975 
O     -2.08139744       -2.02474581       -2.38550480 
C     -4.53347612       -1.53232169       -2.48147876 
N     -5.18561958       -0.69421933       -1.46013186 
C     -5.41156446       -2.62284456       -3.13166465 
H     -2.21079357       -1.71135789       -3.31436669 
H     -4.18113920       -0.84345438       -3.26659311 
H     -5.60662849       -1.30147376       -0.75001247 
H     -5.96136783       -0.19125475       -1.89482756 
H     -5.78575816       -3.32090735       -2.37302340 
H     -6.27378716       -2.14565111       -3.61441539 
H     -4.88132057       -3.20252407       -3.89838668 
14
Iteration: 4
Ca      0.00000000        0.00000000        0.00000000 
O     -3.30265670       -2.56488269       -0.63364639 
C     -3.30527001       -2.10552603       -1.75703045 
O     -2.07782159       -1.97342651       -2.39887542 
C     -4.53592558       -1.53394509       -2.48574200 
N     -5.19395197       -0.68416595       -1.47901187 
C     -5.40579160       -2.63751227       -3.12269201 
H     -2.22295414       -1.65380269       -3.30958115 
H     -4.18758627       -0.85667919       -3.28417277 
H     -5.58700506       -1.28366242       -0.74100168 
H     -5.98620832       -0.19903057       -1.91117196 
H     -5.77608508       -3.33586321       -2.36047293 
H     -6.27209999       -2.17157578       -3.61369087 
H     -4.86541396       -3.21555876       -3.88639249 
14
Iteration: 5
Ca      0.00000000        0.00000000        0.00000000 
O     -3.26748001       -2.47980548       -0.60875159 
C     -3.29003841       -2.04874646       -1.74669630 
O     -2.07399627       -1.88094659       -2.41284080 
C     -4.54430627       -1.53529670       -2.49166255 
N     -5.21365912       -0.66985172       -1.50788839 
C     -5.39666351       -2.66302154       -3.10933129 
H     -2.26948847       -1.59250663       -3.32883037 
H     -4.20482807       -0.87505675       -3.31052199 
H     -5.56978739       -1.25717297       -0.73735318 
H     -6.02739422       -0.21572071       -1.94018131 
H     -5.76265016       -3.35948764       -2.34158064 
H     -6.26862009       -2.21458594       -3.61181624 
H     -4.84379545       -3.24035604       -3.86763873 
14
Iteration: 6
Ca      0.00000000        0.00000000        0.00000000 
O     -3.24211749       -2.39977638       -0.60509961 
C     -3.27707773       -1.98176063       -1.74326547 
O     -2.07641927       -1.79384686       -2.43216371 
C     -4.55529328       -1.53072733       -2.49626299 
N     -5.24027626       -0.65640383       -1.53466402 
C     -5.38369865       -2.69006294       -3.08908282 
H     -2.29667317       -1.52332375       -3.34200424 
H     -4.22979722       -0.88768356       -3.33720215 
H     -5.56980061       -1.23162539       -0.74655578 
H     -6.06933342       -0.23427626       -1.97165741 
H     -5.74284810       -3.38170540       -2.31218981 
H     -6.26270639       -2.26317396       -3.60207769 
H     -4.81907514       -3.26905002       -3.83985812 
14
Iteration: 7
Ca      0.00000000        0.00000000        0.00000000 
O     -3.21168345       -2.31116592       -0.60688645 
C     -3.26707511       -1.91704933       -1.75016881 
O     -2.07910512       -1.70364840       -2.44798085 
C     -4.56617139       -1.52467454       -2.50203064 
N     -5.26670901       -0.64846400       -1.55740564 
C     -5.36941764       -2.71554550       -3.06794548 
H     -2.31911192       -1.46741247       -3.36493629 
H     -4.26191473       -0.89400253       -3.36133739 
H     -5.58361457       -1.21033048       -0.76312031 
H     -6.10213705       -0.25270826       -2.00026134 
H     -5.71767509       -3.39856341       -2.27823714 
H     -6.25592287       -2.31255888       -3.58772393 
H     -4.79616229       -3.29820597       -3.80918307 
14
Iteration: 8
Ca      0.00000000        0.00000000        0.00000000 
O     -3.18114198       -2.21570605       -0.62089434 
C     -3.26233957       -1.85255330       -1.77173534 
O     -2.09013876       -1.62964256       -2.47159870 
C     -4.57659406       -1.51361076       -2.50877314 
N     -5.29691409       -0.64388357       -1.57764433 
C     -5.35116919       -2.73694141       -3.04426484 
H     -2.31776969       -1.42190351       -3.39573742 
H     -4.30377837       -0.88997157       -3.38229020 
H     -5.60654653       -1.19165226       -0.77629536 
H     -6.13661878       -0.27690270       -2.02914375 
H     -5.68257328       -3.40592162       -2.23614867 
H     -6.24679379       -2.36271189       -3.56614270 
H     -4.77263319       -3.32602935       -3.77331790 
14
Iteration: 9
Ca      0.00000000        0.00000000        0.00000000 
O     -3.14345819       -2.11058258       -0.62249124 
C     -3.25676406       -1.79013099       -1.78984878 
O     -2.10055531       -1.55911691       -2.49941939 
C     -4.58661002       -1.50356376       -2.51661721 
N     -5.32618696       -0.63642513       -1.59901701 
C     -5.33371849       -2.75714552       -3.02419512 
H     -2.32585669       -1.38602272       -3.43723840 
H     -4.34408987       -0.88613528       -3.40286128 
H     -5.61898794       -1.17248493       -0.77963398 
H     -6.17783675       -0.30282202       -2.05723529 
H     -5.64782905       -3.41264067       -2.19883888 
H     -6.23917501       -2.41334779       -3.54944406 
H     -4.74829250       -3.35162076       -3.74136824 
14
Iteration: 10
Ca      0.00000000        0.00000000        0.00000000 
O     -3.11065700       -2.00635932       -0.62882819 
C     -3.25236515       -1.72785374       -1.80937741 
O     -2.11504490       -1.50604738       -2.54027410 
C     -4.59604146       -1.49007950       -2.52348362 
N     -5.35887980       -0.62729979       -1.61839217 
C     -5.31293366       -2.77503045       -3.00173464 
H     -2.32999645       -1.34697314       -3.48135353 
H     -4.38251171       -0.87921084       -3.42030569 
H     -5.63726242       -1.15560830       -0.78470819 
H     -6.22080620       -0.32516215       -2.08227720 
H     -5.60710525       -3.41569477       -2.15783936 
H     -6.22978541       -2.46755518       -3.53134166 
H     -4.71710836       -3.37488704       -3.70510761 
14
Iteration: 11
Ca      0.00000000        0.00000000        0.00000000 
O     -3.08248637       -1.90438570       -0.64047685 
C     -3.24820362       -1.66506029       -1.82825032 
O     -2.12729085       -1.45668601       -2.58455898 
C     -4.60551190       -1.47446873       -2.53046988 
N     -5.39216758       -0.61764535       -1.63568714 
C     -5.28946754       -2.79148453       -2.97754656 
H     -2.34421963       -1.31277714       -3.52938452 
H     -4.41843740       -0.87180201       -3.43705799 
H     -5.66033997       -1.14206958       -0.79371589 
H     -6.26086710       -0.34177552       -2.10333203 
H     -5.56250565       -3.41674854       -2.11522902 
H     -6.21746536       -2.52401632       -3.51169042 
H     -4.67988069       -3.39524598       -3.66612897 
14
Iteration: 12
Ca      0.00000000        0.00000000        0.00000000 
O     -3.06175589       -1.79491359       -0.66500448 
C     -3.25045446       -1.60712800       -1.85521797 
O     -2.14480383       -1.44950350       -2.65226293 
C     -4.61459307       -1.45117595       -2.53674899 
N     -5.42817538       -0.60906365       -1.64290271 
C     -5.25629661       -2.79686633       -2.95057480 
H     -2.36631630       -1.29949216       -3.59338428 
H     -4.45382205       -0.85596352       -3.44586358 
H     -5.69874153       -1.14237886       -0.80577687 
H     -6.29705591       -0.35167605       -2.11270520 
H     -5.50206253       -3.40203110       -2.06917582 
H     -6.19477223       -2.58223788       -3.48593766 
H     -4.62591076       -3.40061035       -3.62083312 
14
Iteration: 13
Ca      0.00000000        0.00000000        0.00000000 
O     -3.03042239       -1.68018883       -0.67436733 
C     -3.24441832       -1.54235899       -1.87029410 
O     -2.15025499       -1.40914777       -2.69791156 
C     -4.62770316       -1.43620625       -2.54440567 
N     -5.45611514       -0.59851632       -1.65777725 
C     -5.23283101       -2.81220648       -2.92606191 
H     -2.40681826       -1.27031856       -3.63376015 
H     -4.49070318       -0.85443318       -3.46983107 
H     -5.71707747       -1.13471717       -0.82075734 
H     -6.33330233       -0.36615245       -2.13127243 
H     -5.45860001       -3.40541619       -2.03060584 
H     -6.17888956       -2.63840199       -3.46580776 
H     -4.58407701       -3.41249537       -3.58388579 
14
Iteration: 14
Ca      0.00000000        0.00000000        0.00000000 
O     -3.00147655       -1.54358196       -0.70609431 
C     -3.24075382       -1.47901214       -1.89680325 
O     -2.14990985       -1.42659223       -2.75679215 
C     -4.64523062       -1.41218433       -2.54988492 
N     -5.47855814       -0.59199932       -1.65785873 
C     -5.20024341       -2.80851296       -2.90150791 
H     -2.48363895       -1.29653399       -3.67984674 
H     -4.53307969       -0.84473904       -3.49345778 
H     -5.73463096       -1.15172812       -0.83530046 
H     -6.36409908       -0.38044759       -2.13647929 
H     -5.39941498       -3.39442017       -1.99691604 
H     -6.14860432       -2.68486700       -3.43747664 
H     -4.52503348       -3.38803034       -3.55080625 
14
Iteration: 15
Ca      0.00000000        0.00000000        0.00000000 
O     -2.96703314       -1.41392412       -0.72296565 
C     -3.23906253       -1.41427438       -1.92766167 
O     -2.17097587       -1.41049726       -2.81278533 
C     -4.65642803       -1.39170322       -2.55286340 
N     -5.51333395       -0.59160522       -1.66577434 
C     -5.17013151       -2.81649821       -2.87772378 
H     -2.49787246       -1.29368755       -3.73489839 
H     -4.57472653       -0.82829162       -3.50288770 
H     -5.76976877       -1.15183540       -0.84653957 
H     -6.39499596       -0.39549845       -2.14939010 
H     -5.34334939       -3.39044068       -1.95564505 
H     -6.13088230       -2.73737563       -3.41279127 
H     -4.48175692       -3.39261802       -3.51545893 
14
Iteration: 16
Ca      0.00000000        0.00000000        0.00000000 
O     -2.94424466       -1.31841455       -0.76693537 
C     -3.23478097       -1.34246773       -1.96264507 
O     -2.19316432       -1.37198341       -2.84900796 
C     -4.66566502       -1.36715583       -2.55332027 
N     -5.55173321       -0.58948054       -1.68068871 
C     -5.13665900       -2.82779123       -2.85022029 
H     -2.49417059       -1.28930509       -3.77517407 
H     -4.61961231       -0.80699200       -3.51216848 
H     -5.79561868       -1.14027202       -0.84709578 
H     -6.43414158       -0.41440799       -2.17320063 
H     -5.28577364       -3.39010927       -1.90842258 
H     -6.11111716       -2.78686299       -3.38228216 
H     -4.44329741       -3.40420526       -3.47961142 
14
Iteration: 17
Ca      0.00000000        0.00000000        0.00000000 
O     -2.90788111       -1.18373021       -0.80888292 
C     -3.23141155       -1.27898887       -1.99964899 
O     -2.21833756       -1.39146619       -2.91013904 
C     -4.67689455       -1.34541011       -2.54866987 
N     -5.57914333       -0.59788598       -1.67700739 
C     -5.09694480       -2.82064556       -2.82843162 
H     -2.54405029       -1.34753539       -3.83596386 
H     -4.65944693       -0.79305366       -3.51118274 
H     -5.82616318       -1.15412865       -0.85039243 
H     -6.45284561       -0.42667343       -2.17543648 
H     -5.22790851       -3.37544621       -1.88468063 
H     -6.06799017       -2.80969587       -3.34599932 
H     -4.38959047       -3.37937685       -3.45570228 
14
Iteration: 18
Ca      0.00000000        0.00000000        0.00000000 
O     -2.87149515       -1.05278200       -0.86463727 
C     -3.22931181       -1.22312916       -2.03585885 
O     -2.24908832       -1.40700484       -2.95777892 
C     -4.68543179       -1.32799136       -2.54307495 
N     -5.59166557       -0.60757111       -1.67300741 
C     -5.05770569       -2.80512636       -2.81066615 
H     -2.62483065       -1.41691582       -3.87128218 
H     -4.68956817       -0.79726182       -3.51244196 
H     -5.83553447       -1.16354497       -0.84931988 
H     -6.46277839       -0.43911987       -2.17535946 
H     -5.16881240       -3.35643513       -1.86927099 
H     -6.02800236       -2.82981805       -3.31557694 
H     -4.33658839       -3.34327392       -3.44087411 
14
Iteration: 19
Ca      0.00000000        0.00000000        0.00000000 
O     -2.83937589       -0.93717528       -0.90974700 
C     -3.22402878       -1.16300467       -2.06212524 
O     -2.27048248       -1.40165925       -3.01514366 
C     -4.69080582       -1.30788265       -2.54652307 
N     -5.60975486       -0.59994246       -1.67936558 
C     -5.02280880       -2.80427708       -2.78661155 
H     -2.68987524       -1.43705764       -3.91139738 
H     -4.72590658       -0.79695538       -3.53098940 
H     -5.83925127       -1.15911502       -0.85124098 
H     -6.49313370       -0.45129559       -2.18064728 
H     -5.10519012       -3.34521437       -1.83293200 
H     -6.00119109       -2.87642199       -3.28920504 
H     -4.28843338       -3.33187270       -3.41353305 
14
Iteration: 20
Ca      0.00000000        0.00000000        0.00000000 
O     -2.80063418       -0.87250247       -0.99069977 
C     -3.21556137       -1.14556812       -2.09320237 
O     -2.31176945       -1.42346215       -3.06562646 
C     -4.67695384       -1.30298238       -2.54870308 
N     -5.59157292       -0.60227081       -1.67311073 
C     -4.99703751       -2.79213413       -2.77870110 
H     -2.76476690       -1.49575315       -3.91237643 
H     -4.74375366       -0.81461038       -3.54148011 
H     -5.80511477       -1.15255235       -0.83719442 
H     -6.48207158       -0.43485772       -2.14887742 
H     -5.04836950       -3.33090811       -1.81879454 
H     -5.97692904       -2.88387234       -3.26812723 
H     -4.27729765       -3.30483686       -3.42977425 
14
Iteration: 21
Ca      0.00000000        0.00000000        0.00000000 
O     -2.77979040       -0.83253551       -0.99224745 
C     -3.21188624       -1.13408014       -2.10613430 
O     -2.30842755       -1.39028871       -3.06667424 
C     -4.68209237       -1.30533948       -2.55084954 
N     -5.59676203       -0.60396246       -1.67474803 
C     -4.99827560       -2.80195056       -2.77590105 
H     -2.76337432       -1.51051033       -3.93260655 
H     -4.74880351       -0.81067125       -3.53567674 
H     -5.80988178       -1.14915382       -0.83617001 
H     -6.48261976       -0.43598644       -2.15008526 
H     -5.04726113       -3.34012506       -1.81600426 
H     -5.97930860       -2.89287461       -3.26132302 
H     -4.27755273       -3.31509782       -3.42551912 
14
Iteration: 22
Ca      0.00000000        0.00000000        0.00000000 
O     -2.77179460       -0.82135489       -1.00397662 
C     -3.20793947       -1.12939995       -2.11890449 
O     -2.30386970       -1.41200575       -3.09406047 
C     -4.68566553       -1.29848218       -2.54615563 
N     -5.59779611       -0.59885974       -1.66240045 
C     -4.99677723       -2.80025824       -2.77157172 
H     -2.74753286       -1.52665011       -3.95879037 
H     -4.75512888       -0.79528833       -3.52560243 
H     -5.81484100       -1.15427576       -0.83245395 
H     -6.48686118       -0.43933039       -2.14476879 
H     -5.04391037       -3.34061590       -1.81814693 
H     -5.97841896       -2.89043458       -3.25062829 
H     -4.26956900       -3.31191062       -3.41944460 
14
Iteration: 23
Ca      0.00000000        0.00000000        0.00000000 
O     -2.76145625       -0.81911355       -1.02237401 
C     -3.19959937       -1.12336459       -2.12649322 
O     -2.29683357       -1.38956070       -3.10650020 
C     -4.68453687       -1.29982827       -2.54822288 
N     -5.59045258       -0.59269978       -1.65971174 
C     -5.00005718       -2.80635280       -2.76794281 
H     -2.75095664       -1.53135344       -3.97180144 
H     -4.76107951       -0.79676774       -3.53084049 
H     -5.80372535       -1.14815625       -0.82883517 
H     -6.48361096       -0.43546234       -2.13909046 
H     -5.03889075       -3.34645672       -1.81263964 
H     -5.98686271       -2.89747344       -3.24217435 
H     -4.27469760       -3.32127494       -3.41789770 
14
Iteration: 24
Ca      0.00000000        0.00000000        0.00000000 
O     -2.74750921       -0.79933474       -1.04084745 
C     -3.19506167       -1.12468438       -2.13862293 
O     -2.29814595       -1.38514142       -3.11684341 
C     -4.68203839       -1.30420861       -2.55160058 
N     -5.57940462       -0.59415717       -1.65583158 
C     -5.00368786       -2.80666091       -2.77034373 
H     -2.75691085       -1.54228205       -3.96982348 
H     -4.76486134       -0.80190873       -3.53466139 
H     -5.78909564       -1.14884863       -0.82280810 
H     -6.47263772       -0.43060318       -2.12761205 
H     -5.03155731       -3.34603020       -1.81068046 
H     -5.99574666       -2.89965907       -3.23784340 
H     -4.28645367       -3.32334377       -3.42616614 
14
Iteration: 25
Ca      0.00000000        0.00000000        0.00000000 
O     -2.73774342       -0.78242807       -1.05560614 
C     -3.19034025       -1.12428891       -2.14788221 
O     -2.30062554       -1.39101745       -3.13076713 
C     -4.67792924       -1.30522955       -2.55127083 
N     -5.57010577       -0.59620776       -1.64797403 
C     -5.00456225       -2.80436762       -2.77285608 
H     -2.76041417       -1.57077409       -3.97842826 
H     -4.76515483       -0.79951576       -3.53041002 
H     -5.77821835       -1.15487930       -0.81688069 
H     -6.46416107       -0.42856913       -2.11505084 
H     -5.02842737       -3.34476410       -1.81564509 
H     -5.99853538       -2.89208086       -3.23201994 
H     -4.29642805       -3.32206532       -3.43602811 
14
Iteration: 26
Ca      0.00000000        0.00000000        0.00000000 
O     -2.72953201       -0.76733052       -1.07018865 
C     -3.18407481       -1.12315101       -2.15687500 
O     -2.29776054       -1.39292458       -3.14461291 
C     -4.67395509       -1.30615287       -2.55135950 
N     -5.55854927       -0.59653512       -1.63913931 
C     -5.00882043       -2.80464811       -2.77541466 
H     -2.75927468       -1.59648188       -3.98450885 
H     -4.76489665       -0.79529446       -3.52718710 
H     -5.76611073       -1.16226402       -0.81298372 
H     -6.45430627       -0.42639770       -2.10269693 
H     -5.02717353       -3.34794282       -1.82135213 
H     -6.00811852       -2.88448098       -3.22367113 
H     -4.30955508       -3.32497198       -3.44696875 
14
Iteration: 27
Ca      0.00000000        0.00000000        0.00000000 
O     -2.72045592       -0.75309730       -1.08450388 
C     -3.17803864       -1.12162104       -2.16511645 
O     -2.29599388       -1.39739263       -3.15621006 
C     -4.66913708       -1.30611155       -2.55075622 
N     -5.54841164       -0.59891535       -1.63125343 
C     -5.01143464       -2.80226551       -2.77865841 
H     -2.76186569       -1.62651387       -3.98852061 
H     -4.76473023       -0.79134048       -3.52477121 
H     -5.75523802       -1.17072394       -0.80889981 
H     -6.44525726       -0.42472321       -2.09085010 
H     -5.02216138       -3.34945414       -1.82571732 
H     -6.01671928       -2.87496957       -3.21622169 
H     -4.32218521       -3.32409458       -3.45990993 
14
Iteration: 28
Ca      0.00000000        0.00000000        0.00000000 
O     -2.70976053       -0.74140920       -1.09738472 
C     -3.17139573       -1.12052442       -2.17218366 
O     -2.29330031       -1.40345231       -3.16524893 
C     -4.66410713       -1.30606860       -2.54958785 
N     -5.53796900       -0.60164064       -1.62379185 
C     -5.01450860       -2.80069342       -2.78230705 
H     -2.76450020       -1.65527559       -3.98663945 
H     -4.76327685       -0.78727681       -3.52187598 
H     -5.74384868       -1.17899444       -0.80425296 
H     -6.43638983       -0.42329700       -2.07996911 
H     -5.02005966       -3.35360804       -1.83326509 
H     -6.02494378       -2.86226837       -3.20941060 
H     -4.33696625       -3.32402507       -3.47491059 
14
Iteration: 29
Ca      0.00000000        0.00000000        0.00000000 
O     -2.69754711       -0.73082332       -1.11070594 
C     -3.16605625       -1.11935938       -2.17972958 
O     -2.29397987       -1.41586945       -3.17476260 
C     -4.65993267       -1.30382738       -2.54802389 
N     -5.53000505       -0.60522407       -1.61584302 
C     -5.01441202       -2.79666657       -2.78591223 
H     -2.77149097       -1.68705628       -3.98638359 
H     -4.76274988       -0.78166093       -3.51779591 
H     -5.73754465       -1.18669548       -0.80027147 
H     -6.42738391       -0.41928735       -2.06842121 
H     -5.01218757       -3.35616303       -1.83946233 
H     -6.03073350       -2.85261065       -3.20438326 
H     -4.34641857       -3.31882267       -3.48884218 
14
Iteration: 30
Ca      0.00000000        0.00000000        0.00000000 
O     -2.68361756       -0.72624872       -1.12220299 
C     -3.16024500       -1.12066535       -2.18598865 
O     -2.29461570       -1.42998381       -3.18203872 
C     -4.65597461       -1.30198894       -2.54626574 
N     -5.52199731       -0.60756797       -1.60853012 
C     -5.01465514       -2.79296001       -2.79003820 
H     -2.77936370       -1.71656017       -3.98352782 
H     -4.76272319       -0.77658252       -3.51409311 
H     -5.72882344       -1.19210400       -0.79427251 
H     -6.42104262       -0.41608701       -2.05774228 
H     -5.00704818       -3.35935903       -1.84762979 
H     -6.03363804       -2.84050384       -3.20148445 
H     -4.35582366       -3.31338373       -3.50286932 
14
Iteration: 31
Ca      0.00000000        0.00000000        0.00000000 
O     -2.67012905       -0.72552585       -1.13234861 
C     -3.15465994       -1.12374973       -2.19159765 
O     -2.29602651       -1.44765076       -3.18861079 
C     -4.65291170       -1.29951787       -2.54478681 
N     -5.51427839       -0.60911798       -1.60029747 
C     -5.01456005       -2.78905060       -2.79471114 
H     -2.78781369       -1.74512160       -3.98108068 
H     -4.76336942       -0.76995701       -3.50970914 
H     -5.72191223       -1.19699115       -0.78886638 
H     -6.41302801       -0.40947494       -2.04574781 
H     -5.00155288       -3.36248644       -1.85688471 
H     -6.03643126       -2.83180779       -3.20048023 
H     -4.36233482       -3.30630015       -3.51583556 
14
Iteration: 32
Ca      0.00000000        0.00000000        0.00000000 
O     -2.65755376       -0.72722193       -1.14110558 
C     -3.14891418       -1.12874971       -2.19654973 
O     -2.29758908       -1.46597181       -3.19414786 
C     -4.65030272       -1.29720487       -2.54395442 
N     -5.50596146       -0.60941739       -1.59182806 
C     -5.01534497       -2.78505439       -2.80006795 
H     -2.79611870       -1.77239317       -3.97930422 
H     -4.76399461       -0.76281654       -3.50525794 
H     -5.71351362       -1.20154316       -0.78357587 
H     -6.40551292       -0.40234341       -2.03326747 
H     -4.99669292       -3.36457387       -1.86609382 
H     -6.03910255       -2.82496071       -3.20084757 
H     -4.36786745       -3.29876330       -3.52794201 
14
Iteration: 33
Ca      0.00000000        0.00000000        0.00000000 
O     -2.64650818       -0.73153324       -1.14853509 
C     -3.14279013       -1.13531859       -2.20095914 
O     -2.29848388       -1.48500746       -3.19918528 
C     -4.64780085       -1.29505855       -2.54356101 
N     -5.49688075       -0.60933593       -1.58310796 
C     -5.01733470       -2.78112725       -2.80560012 
H     -2.80253247       -1.79664695       -3.97827479 
H     -4.76459654       -0.75483529       -3.50139856 
H     -5.70481221       -1.20705985       -0.77919664 
H     -6.39659300       -0.39425191       -2.02033026 
H     -4.99307336       -3.36576733       -1.87496697 
H     -6.04276710       -2.81979137       -3.20129239 
H     -4.37383374       -3.29161689       -3.53922450 
14
Iteration: 34
Ca      0.00000000        0.00000000        0.00000000 
O     -2.64650818       -0.73153324       -1.14853509 
C     -3.14279013       -1.13531859       -2.20095914 
O     -2.29848388       -1.48500746       -3.19918528 
C     -4.64780085       -1.29505855       -2.54356101 
N     -5.49688075       -0.60933593       -1.58310796 
C     -5.01733470       -2.78112725       -2.80560012 
H     -2.80253247       -1.79664695       -3.97827479 
H     -4.76459654       -0.75483529       -3.50139856 
H     -5.70481221       -1.20705985       -0.77919664 
H     -6.39659300       -0.39425191       -2.02033026 
H     -4.99307336       -3.36576733       -1.87496697 
H     -6.04276710       -2.81979137       -3.20129239 
H     -4.37383374       -3.29161689       -3.53922450 
