3
Iteration: 0
H      0.0   0.0   0.0 
O      4.0587    0.0000    0.0575 
H      3.0685    0.0000    0.0575 
