11
Iteration: 0
Na      0.0   0.0   0.0 
C      0.9255   -0.3288    4.4775 
C     -0.1501    0.4254    3.7566 
O     -1.1136    0.9125    4.4046 
O     -0.0973    0.6003    2.3764 
N      0.3604   -1.5064    5.1270 
H      1.3772    0.3370    5.2444 
H      1.7265   -0.6361    3.7694 
H      0.6628    0.2209    1.8248 
H      0.0822   -2.1874    4.3828 
H      1.1237   -1.9630    5.6770 
11
Iteration: 1
Na      0.00000000        0.00000000        0.00000000 
C      0.93245575       -0.34225864        4.42387548 
C     -0.17246121        0.43416538        3.74880812 
O     -1.13297643        0.90517335        4.32372928 
O     -0.10219840        0.56901720        2.35988224 
N      0.36160264       -1.50460521        5.10985991 
H      1.37898455        0.33507878        5.17187626 
H      1.73317245       -0.60081272        3.69452030 
H      0.76811923        0.23403444        1.97974696 
H      0.05706237       -2.20059064        4.41212573 
H      1.10862919       -1.95767593        5.65413895 
11
Iteration: 2
Na      0.00000000        0.00000000        0.00000000 
C      0.93740205       -0.35665477        4.36857346 
C     -0.21266747        0.41730125        3.73127838 
O     -1.14282849        0.92964440        4.24362521 
O     -0.06135180        0.54507241        2.32312123 
N      0.38070101       -1.50104467        5.09279758 
H      1.40200159        0.32641136        5.09264061 
H      1.71837991       -0.58294655        3.60352891 
H      0.90199971        0.22481562        2.15363443 
H      0.02821235       -2.21276532        4.44701518 
H      1.11094481       -1.94795696        5.64219390 
11
Iteration: 3
Na      0.00000000        0.00000000        0.00000000 
C      0.94489668       -0.36533467        4.36325778 
C     -0.18729158        0.44328690        3.72739763 
O     -1.15685984        0.92596886        4.20253414 
O      0.01379935        0.56198058        2.30561823 
N      0.39060666       -1.50286263        5.08609367 
H      1.42569412        0.31004587        5.08255046 
H      1.71415574       -0.59162301        3.58448378 
H      0.93693293        0.19427540        2.19851683 
H      0.01496562       -2.21400005        4.45615163 
H      1.11073448       -1.95261523        5.64609021 
11
Iteration: 4
Na      0.00000000        0.00000000        0.00000000 
C      0.94795381       -0.38063613        4.36530786 
C     -0.17353994        0.42423133        3.69771243 
O     -1.17401142        0.90972145        4.12689670 
O      0.13834628        0.57187389        2.26451292 
N      0.40257013       -1.50558448        5.08721976 
H      1.44999437        0.29587246        5.07241847 
H      1.70901325       -0.62092692        3.58302250 
H      1.04856724        0.20735940        2.24957743 
H     -0.00343734       -2.21483294        4.47560892 
H      1.11371542       -1.95436641        5.66314231 
11
Iteration: 5
Na      0.00000000        0.00000000        0.00000000 
C      0.95512366       -0.39602930        4.36725037 
C     -0.14279621        0.41440123        3.66321742 
O     -1.17634362        0.85736079        4.06241106 
O      0.22797832        0.56463100        2.22449851 
N      0.40297541       -1.50404699        5.09469566 
H      1.45938407        0.28741996        5.06866330 
H      1.72145041       -0.65992814        3.59998867 
H      1.15984448        0.25368113        2.27387036 
H     -0.01690698       -2.21439122        4.49473380 
H      1.10293834       -1.95179171        5.68896778 
11
Iteration: 6
Na      0.00000000        0.00000000        0.00000000 
C      0.98126008       -0.43517376        4.36976560 
C     -0.08270653        0.35739535        3.59274438 
O     -1.13338479        0.76645871        3.95970461 
O      0.38635442        0.56556828        2.16385111 
N      0.39507316       -1.50029021        5.12354573 
H      1.47028533        0.27663440        5.05909462 
H      1.76686780       -0.75189882        3.64338451 
H      1.33347456        0.36328161        2.27187624 
H     -0.03588142       -2.21937338        4.54242959 
H      1.07191119       -1.94197946        5.75435679 
11
Iteration: 7
Na      0.00000000        0.00000000        0.00000000 
C      1.02219070       -0.47320753        4.36496910 
C     -0.00824525        0.29997943        3.52559509 
O     -1.09636301        0.66009624        3.84747574 
O      0.51258077        0.53323605        2.11485444 
N      0.37606021       -1.48463113        5.16191536 
H      1.48632821        0.27243831        5.04028636 
H      1.82737482       -0.84441599        3.68233478 
H      1.50295484        0.48118389        2.25900371 
H     -0.05041959       -2.22199790        4.59956224 
H      1.02645152       -1.91730244        5.82759011 
11
Iteration: 8
Na      0.00000000        0.00000000        0.00000000 
C      1.08119532       -0.51318750        4.36049243 
C      0.08852934        0.24296668        3.47366091 
O     -1.02078422        0.56971344        3.75935398 
O      0.60918962        0.51009189        2.10104496 
N      0.34909301       -1.46046361        5.20959081 
H      1.51899802        0.26463401        5.02071575 
H      1.90219489       -0.94189439        3.72615033 
H      1.58430679        0.55330156        2.19648993 
H     -0.05425304       -2.22027517        4.65757446 
H      0.97444680       -1.88290467        5.90178706 
11
Iteration: 9
Na      0.00000000        0.00000000        0.00000000 
C      1.10309183       -0.52777544        4.35754504 
C      0.11896834        0.20633322        3.45149377 
O     -0.99884836        0.54309627        3.69165551 
O      0.65964629        0.49037587        2.10313895 
N      0.35619750       -1.45009645        5.22124154 
H      1.55200562        0.25171602        5.00086800 
H      1.91744447       -0.96657883        3.73601531 
H      1.62527335        0.54906777        2.19553789 
H     -0.03905381       -2.22257126        4.67897507 
H      0.97757700       -1.85647544        5.91942591 
11
Iteration: 10
Na      0.00000000        0.00000000        0.00000000 
C      1.16404737       -0.57693337        4.34800688 
C      0.22253844        0.11431853        3.36712806 
O     -0.94567480        0.41156873        3.49165551 
O      0.84592630        0.44143710        2.07352591 
N      0.36787617       -1.42301366        5.25779746 
H      1.62845651        0.22376421        4.94967170 
H      1.97495703       -1.07231721        3.77352801 
H      1.81140362        0.60358575        2.19408832 
H     -0.00902348       -2.23245678        4.75013890 
H      0.96149197       -1.78985597        6.00592314 
11
Iteration: 11
Na      0.00000000        0.00000000        0.00000000 
C      1.20028094       -0.60596446        4.32730084 
C      0.28614514        0.06429787        3.31947868 
O     -0.88117268        0.34702245        3.37285819 
O      0.93960652        0.39154639        2.07486726 
N      0.40865756       -1.40501955        5.25876792 
H      1.70961994        0.19586519        4.88703121 
H      1.98745019       -1.13092203        3.76775222 
H      1.89101422        0.55578855        2.22252300 
H      0.04758625       -2.24653527        4.78604246 
H      0.99071734       -1.72590164        6.04352278 
11
Iteration: 12
Na      0.00000000        0.00000000        0.00000000 
C      1.25366215       -0.65683069        4.30591772 
C      0.38914597       -0.01274580        3.23208439 
O     -0.80388887        0.20952444        3.18656149 
O      1.13960652        0.35335798        2.04766166 
N      0.44615435       -1.37984642        5.28005878 
H      1.80173380        0.16211318        4.81333430 
H      2.02591135       -1.24636093        3.78081972 
H      2.06537207        0.52976078        2.25625672 
H      0.08610945       -2.25107339        4.85600256 
H      1.01316239       -1.65302672        6.09127771 
11
Iteration: 13
Na      0.00000000        0.00000000        0.00000000 
C      1.32251171       -0.71811563        4.27736071 
C      0.51264109       -0.10387282        3.13326955 
O     -0.69032578        0.04907975        2.99837321 
O      1.33960653        0.29127032        2.01728334 
N      0.48854753       -1.34879628        5.30380115 
H      1.90957584        0.11880887        4.72776983 
H      2.07636680       -1.38753192        3.79133487 
H      2.25598487        0.51802871        2.29055655 
H      0.12186704       -2.24541772        4.93507994 
H      1.04151833       -1.57368562        6.13155421 
11
Iteration: 14
Na      0.00000000        0.00000000        0.00000000 
C      1.38817360       -0.76455843        4.24404168 
C      0.63067778       -0.16390745        3.05319011 
O     -0.56837913       -0.14058971        2.86850395 
O      1.49727108        0.22541713        2.00594584 
N      0.56575965       -1.32673413        5.27189946 
H      2.01297163        0.04998889        4.66196567 
H      2.11606146       -1.48931608        3.77696957 
H      2.39029747        0.39352090        2.35903308 
H      0.17734773       -2.20769458        4.95688551 
H      1.12268293       -1.50609902        6.07799974 
11
Iteration: 15
Na      0.00000000        0.00000000        0.00000000 
C      1.48816920       -0.82975188        4.19741862 
C      0.78463691       -0.27037528        2.94081516 
O     -0.41377898       -0.33430558        2.67009404 
O      1.69727108        0.14241430        1.97411897 
N      0.62197816       -1.28692258        5.26223133 
H      2.13377600       -0.01940693        4.57785069 
H      2.19470857       -1.61455325        3.77124759 
H      2.56903304        0.31195220        2.39052314 
H      0.23624224       -2.21438798        5.03281354 
H      1.13758281       -1.39055443        6.15924779 
11
Iteration: 16
Na      0.00000000        0.00000000        0.00000000 
C      1.49125629       -0.82670394        4.19271492 
C      0.75937266       -0.28490767        2.95684902 
O     -0.38617670       -0.26640810        2.72914033 
O      1.63500620        0.14499037        1.97042868 
N      0.61434848       -1.29376211        5.25946631 
H      2.11010176       -0.01122431        4.59346623 
H      2.19651864       -1.56883423        3.74801055 
H      2.52026259        0.29514803        2.36761337 
H      0.18822109       -2.21959735        5.04302001 
H      1.13001294       -1.41794507        6.15360305 
11
Iteration: 17
Na      0.00000000        0.00000000        0.00000000 
C      1.48930536       -0.82863013        4.19568750 
C      0.77533881       -0.27572370        2.94671617 
O     -0.40362040       -0.30931700        2.69182508 
O      1.67435549        0.14336238        1.97276082 
N      0.61917018       -1.28943976        5.26121371 
H      2.12506308       -0.01639545        4.58359774 
H      2.19537474       -1.59772710        3.76269557 
H      2.55108386        0.30576769        2.38209156 
H      0.21856883       -2.21630520        5.03656987 
H      1.13479684       -1.40063512        6.15717033 
11
Iteration: 18
Na      0.00000000        0.00000000        0.00000000 
C      1.54416746       -0.85008258        4.20225130 
C      0.83800066       -0.35825071        2.92007437 
O     -0.34271399       -0.38759794        2.59971473 
O      1.72450363        0.08817659        1.97504863 
N      0.64913089       -1.28553628        5.25512845 
H      2.17232656       -0.03590273        4.58756944 
H      2.23933520       -1.59014478        3.77985629 
H      2.60400283        0.26390901        2.36933575 
H      0.20541862       -2.18245464        5.04256472 
H      1.17273852       -1.40954135        6.10673434 
11
Iteration: 19
Na      0.00000000        0.00000000        0.00000000 
C      1.58332432       -0.89454997        4.18213306 
C      0.91583239       -0.41951994        2.86716263 
O     -0.24669485       -0.46713571        2.50902536 
O      1.84231348        0.07609972        1.95595598 
N      0.66657250       -1.28473507        5.23413615 
H      2.21679280       -0.07540512        4.55242488 
H      2.28536778       -1.67847885        3.80349436 
H      2.70844676        0.23514743        2.37881790 
H      0.23226079       -2.17817195        5.04485579 
H      1.17554587       -1.37600017        6.11681189 
11
Iteration: 20
Na      0.00000000        0.00000000        0.00000000 
C      1.66644933       -0.96286702        4.13265998 
C      1.06743537       -0.49579183        2.79466159 
O     -0.07751582       -0.61808563        2.38292638 
O      1.99401381        0.03114063        1.93426543 
N      0.71398289       -1.26768063        5.19231183 
H      2.32313017       -0.14235203        4.47697363 
H      2.36917502       -1.81711396        3.82257298 
H      2.84282691        0.16033325        2.38849420 
H      0.23763947       -2.17916869        5.07489115 
H      1.20154574       -1.31420330        6.10459092 
11
Iteration: 21
Na      0.00000000        0.00000000        0.00000000 
C      1.66389376       -0.96956443        4.12814708 
C      1.06897637       -0.49708363        2.81470242 
O     -0.07277092       -0.62898640        2.41253357 
O      1.97573744        0.05000596        1.94120290 
N      0.71430670       -1.29428962        5.14446202 
H      2.30021406       -0.15865026        4.49945027 
H      2.37981490       -1.77887255        3.82745591 
H      2.83444471        0.17256088        2.38333316 
H      0.25406052       -2.18827843        5.00787520 
H      1.19575783       -1.33984155        6.06871996 
11
Iteration: 22
Na      0.00000000        0.00000000        0.00000000 
C      1.71782978       -1.01578372        4.11273412 
C      1.15379110       -0.57452474        2.76703585 
O      0.02385214       -0.72097716        2.31707333 
O      2.08879627        0.02397574        1.92541588 
N      0.73374376       -1.28898344        5.13943743 
H      2.35910461       -0.19729825        4.47129606 
H      2.42051036       -1.82767974        3.83555622 
H      2.94682841        0.16433936        2.38470474 
H      0.24620778       -2.16774278        5.01703682 
H      1.20891577       -1.34128635        6.03625392 
11
Iteration: 23
Na      0.00000000        0.00000000        0.00000000 
C      1.73023919       -1.01672401        4.11519495 
C      1.17743529       -0.57316310        2.76684960 
O      0.04946223       -0.72088866        2.32145514 
O      2.07810980        0.01096205        1.92376405 
N      0.72556946       -1.28363600        5.13459170 
H      2.37017581       -0.19625292        4.47889130 
H      2.43618289       -1.85312884        3.85621593 
H      2.93827412        0.16304678        2.35502824 
H      0.24916914       -2.16146395        5.00147266 
H      1.19142108       -1.33891271        6.03837512 
11
Iteration: 24
Na      0.00000000        0.00000000        0.00000000 
C      1.75509717       -1.03180900        4.09656543 
C      1.21605850       -0.59767097        2.74506345 
O      0.09451280       -0.77498686        2.28715531 
O      2.12241009        0.00087560        1.91608593 
N      0.75574097       -1.28381413        5.10121203 
H      2.40063870       -0.21760583        4.46112704 
H      2.45543120       -1.87727683        3.85436401 
H      2.98072271        0.14111813        2.36213718 
H      0.26423988       -2.18061389        4.99418419 
H      1.20757158       -1.31452579        6.02888303 
11
Iteration: 25
Na      0.00000000        0.00000000        0.00000000 
C      1.76582392       -1.04038025        4.09467254 
C      1.23365085       -0.60748357        2.73983347 
O      0.11498502       -0.78709522        2.27877787 
O      2.14089657        0.00133047        1.91203386 
N      0.75092239       -1.28506011        5.09457656 
H      2.41160588       -0.22631842        4.46172082 
H      2.46188277       -1.88256269        3.85754131 
H      3.00065020        0.14634274        2.35662750 
H      0.26682201       -2.17466627        4.97590874 
H      1.19658855       -1.32155814        6.01816006 
11
Iteration: 26
Na      0.00000000        0.00000000        0.00000000 
C      1.79187614       -1.05260346        4.08836313 
C      1.27477559       -0.62654287        2.72271611 
O      0.16193160       -0.81667592        2.25116417 
O      2.17993676       -0.00823486        1.90141026 
N      0.75499304       -1.28308283        5.07355206 
H      2.43894372       -0.24298724        4.46134822 
H      2.48061104       -1.90386122        3.86866361 
H      3.04051954        0.13956321        2.34585522 
H      0.27721977       -2.17129538        4.94532494 
H      1.18493407       -1.31917050        6.00050596 
11
Iteration: 27
Na      0.00000000        0.00000000        0.00000000 
C      1.83289150       -1.06673027        4.07446317 
C      1.33691578       -0.64526332        2.70025835 
O      0.23342946       -0.85398958        2.22110722 
O      2.23724926       -0.01571191        1.88391757 
N      0.76032685       -1.28008673        5.03019250 
H      2.48671147       -0.26559966        4.45911841 
H      2.50387894       -1.93191091        3.87867941 
H      3.09809904        0.12994746        2.32641366 
H      0.29268887       -2.17237235        4.88183561 
H      1.15762855       -1.31559988        5.96895909 
11
Iteration: 28
Na      0.00000000        0.00000000        0.00000000 
C      1.87622378       -1.08283736        4.05958035 
C      1.40557392       -0.67207101        2.66629914 
O      0.30948252       -0.90067290        2.16452433 
O      2.31118640       -0.03632155        1.86529732 
N      0.77538642       -1.27470632        4.99070693 
H      2.53300977       -0.29063283        4.45091279 
H      2.53522095       -1.96665534        3.89091741 
H      3.16932438        0.10708861        2.31785777 
H      0.31671304       -2.17084361        4.83430193 
H      1.14182114       -1.29828178        5.94888477 
11
Iteration: 29
Na      0.00000000        0.00000000        0.00000000 
C      1.86589192       -1.06927186        4.06196014 
C      1.38814076       -0.65291588        2.67495483 
O      0.29006669       -0.87033299        2.18244431 
O      2.29450472       -0.02809020        1.86536369 
N      0.77261063       -1.27569693        4.98913857 
H      2.51937438       -0.27816267        4.45828889 
H      2.52549086       -1.95051483        3.88724326 
H      3.15303040        0.11347920        2.31647955 
H      0.30789505       -2.17212206        4.82419567 
H      1.13929001       -1.30708953        5.94135500 
11
Iteration: 30
Na      0.00000000        0.00000000        0.00000000 
C      1.86446297       -1.06705969        4.05859653 
C      1.38745264       -0.64594467        2.67572747 
O      0.28815836       -0.86008464        2.18526358 
O      2.29728588       -0.02533843        1.86595529 
N      0.77095224       -1.27585172        4.98676150 
H      2.51812887       -0.27380124        4.45374932 
H      2.52457988       -1.94398046        3.87961028 
H      3.15362552        0.11476909        2.31813403 
H      0.30209868       -2.17006667        4.82083064 
H      1.13504273       -1.30860995        5.94117710 
11
Iteration: 31
Na      0.00000000        0.00000000        0.00000000 
C      1.87212217       -1.06248047        4.04793451 
C      1.40560633       -0.63573291        2.66454489 
O      0.30581782       -0.84044538        2.16984018 
O      2.32750919       -0.02811775        1.85913777 
N      0.77213081       -1.27383494        4.96878685 
H      2.52310741       -0.26767382        4.44551000 
H      2.53413565       -1.93785191        3.87026286 
H      3.17894270        0.11066079        2.31935503 
H      0.29489990       -2.16226592        4.79512361 
H      1.12342066       -1.30761486        5.92877693 
11
Iteration: 32
Na      0.00000000        0.00000000        0.00000000 
C      1.90799526       -1.04683023        4.01061049 
C      1.48340724       -0.60867792        2.61837941 
O      0.38364736       -0.78482852        2.10662380 
O      2.44223669       -0.04204726        1.83012395 
N      0.77830336       -1.26564733        4.89287876 
H      2.54520785       -0.25162959        4.42728205 
H      2.57654164       -1.91926023        3.84707654 
H      3.27920273        0.09360279        2.31481618 
H      0.28244734       -2.13641526        4.68423221 
H      1.08010511       -1.30259387        5.87166181 
11
Iteration: 33
Na      0.00000000        0.00000000        0.00000000 
C      1.93150565       -1.03764318        3.98703762 
C      1.53493944       -0.59666607        2.58927964 
O      0.43576773       -0.75987315        2.06985495 
O      2.51013707       -0.04984453        1.81192508 
N      0.78180038       -1.25973139        4.84155633 
H      2.55809756       -0.24257477        4.42020180 
H      2.60675321       -1.90976898        3.83620209 
H      3.34051321        0.08305171        2.30927646 
H      0.27949560       -2.11989855        4.61012957 
H      1.05598029       -1.30095369        5.82641658 
11
Iteration: 34
Na      0.00000000        0.00000000        0.00000000 
C      1.97935385       -1.02199205        3.94436136 
C      1.63731343       -0.58566653        2.53346018 
O      0.54095408       -0.73125927        2.00334832 
O      2.63188037       -0.06314445        1.77674718 
N      0.78923864       -1.24809931        4.73828685 
H      2.58011814       -0.22705261        4.41578705 
H      2.66870418       -1.89051777        3.82165155 
H      3.45368707        0.06200965        2.29156630 
H      0.28718893       -2.09259201        4.46351667 
H      1.01138090       -1.30055507        5.73284306 
11
Iteration: 35
Na      0.00000000        0.00000000        0.00000000 
C      1.99948965       -1.01996341        3.92809885 
C      1.68141181       -0.59055745        2.51162493 
O      0.58763183       -0.73589347        1.97662703 
O      2.67917075       -0.06549008        1.76376723 
N      0.79475683       -1.24354215        4.69486843 
H      2.58893808       -0.22369035        4.41359136 
H      2.69420973       -1.88756631        3.81928743 
H      3.49936266        0.04981745        2.28515004 
H      0.29899626       -2.08572206        4.40785460 
H      0.99899636       -1.30412659        5.68894285 
11
Iteration: 36
Na      0.00000000        0.00000000        0.00000000 
C      2.03590476       -1.02183040        3.90615171 
C      1.75219301       -0.59919012        2.47876069 
O      0.66424056       -0.74477001        1.93197603 
O      2.75679505       -0.07231960        1.74326377 
N      0.80170968       -1.23713559        4.63274168 
H      2.61379352       -0.22651516        4.40757637 
H      2.72999010       -1.89148451        3.81933496 
H      3.57381364        0.03170171        2.27339510 
H      0.31534842       -2.08045441        4.32778728 
H      0.96984646       -1.30696644        5.63771957 
11
Iteration: 37
Na      0.00000000        0.00000000        0.00000000 
C      2.02956446       -1.02382124        3.91098951 
C      1.74257996       -0.60386769        2.48473165 
O      0.65442560       -0.75179258        1.93731082 
O      2.74429478       -0.07064785        1.74944684 
N      0.80305627       -1.23750086        4.64236540 
H      2.60797616       -0.22509669        4.40416899 
H      2.72214181       -1.89215379        3.82128202 
H      3.56312176        0.03018673        2.27561318 
H      0.32463113       -2.08759150        4.34509627 
H      0.98018808       -1.30922131        5.64247976 
11
Iteration: 38
Na      0.00000000        0.00000000        0.00000000 
C      2.03248283       -1.02387289        3.90752548 
C      1.75006380       -0.60248888        2.48140844 
O      0.66262972       -0.74842927        1.93178422 
O      2.75554447       -0.07243287        1.74879131 
N      0.80262312       -1.23604936        4.63655893 
H      2.60975941       -0.22372803        4.39860862 
H      2.72612867       -1.89324692        3.82140670 
H      3.57374105        0.02669851        2.27716078 
H      0.32489458       -2.08743441        4.33931549 
H      0.97884798       -1.30936161        5.63609185 
11
Iteration: 39
Na      0.00000000        0.00000000        0.00000000 
C      2.04346935       -1.01911630        3.89649296 
C      1.77612313       -0.59731447        2.46843866 
O      0.69040283       -0.73401453        1.91302137 
O      2.79175360       -0.07931920        1.74392812 
N      0.80336400       -1.23168992        4.61091441 
H      2.61321662       -0.21431226        4.38760727 
H      2.74006468       -1.88687868        3.81999259 
H      3.60793582        0.01396794        2.27700988 
H      0.33246684       -2.08601332        4.30677481 
H      0.97030595       -1.31026178        5.61299393 
11
Iteration: 40
Na      0.00000000        0.00000000        0.00000000 
C      2.05938742       -1.01540554        3.88393030 
C      1.81103035       -0.59643689        2.45162789 
O      0.72818001       -0.72626761        1.88949345 
O      2.83551227       -0.08670646        1.73611680 
N      0.80635172       -1.22749704        4.57886770 
H      2.61870952       -0.20695857        4.38014892 
H      2.75972007       -1.88146537        3.82166942 
H      3.64933283       -0.00278681        2.27394106 
H      0.34222453       -2.08316525        4.26596851 
H      0.96139805       -1.31240034        5.58322852 
11
Iteration: 41
Na      0.00000000        0.00000000        0.00000000 
C      2.06792003       -1.01341645        3.87719630 
C      1.82974176       -0.59596647        2.44261677 
O      0.74842982       -0.72211500        1.87688171 
O      2.85896834       -0.09066627        1.73192969 
N      0.80795323       -1.22524952        4.56168962 
H      2.62165390       -0.20301676        4.37615100 
H      2.77025600       -1.87856367        3.82256825 
H      3.67152298       -0.01176791        2.27229607 
H      0.34745497       -2.08163859        4.24409500 
H      0.95662313       -1.31354668        5.56727329 
11
Iteration: 42
Na      0.00000000        0.00000000        0.00000000 
C      2.07383715       -1.01083969        3.87279395 
C      1.84226442       -0.59576653        2.43680380 
O      0.76241482       -0.71899882        1.86817394 
O      2.87517646       -0.09571987        1.72892396 
N      0.81160327       -1.22438211        4.55041884 
H      2.62326184       -0.19849364        4.37446051 
H      2.77682324       -1.87444374        3.82378551 
H      3.68691109       -0.02300166        2.27277651 
H      0.35287855       -2.07968613        4.22911304 
H      0.95719998       -1.31504789        5.55638501 
11
Iteration: 43
Na      0.00000000        0.00000000        0.00000000 
C      2.08675329       -1.00675843        3.86283954 
C      1.87018354       -0.59516731        2.42355303 
O      0.79301619       -0.71250149        1.84911713 
O      2.91063099       -0.10377666        1.72249450 
N      0.81629745       -1.22159778        4.52498933 
H      2.62733101       -0.19092711        4.36937582 
H      2.79211120       -1.86816732        3.82567701 
H      3.72050107       -0.04107105        2.27173556 
H      0.36240183       -2.07657626        4.19616914 
H      0.95344745       -1.31741445        5.53239047 
11
Iteration: 44
Na      0.00000000        0.00000000        0.00000000 
C      2.09570960       -1.00665038        3.85874812 
C      1.88683524       -0.59902280        2.41744914 
O      0.81148728       -0.71653835        1.83958925 
O      2.92970442       -0.10917519        1.71991398 
N      0.82178672       -1.22148000        4.51489150 
H      2.63129786       -0.18988434        4.36941004 
H      2.80123926       -1.86835851        3.83016701 
H      3.73808507       -0.05017583        2.26794555 
H      0.36733329       -2.07432496        4.18197304 
H      0.95558092       -1.31946538        5.52188307 
11
Iteration: 45
Na      0.00000000        0.00000000        0.00000000 
C      2.10045831       -1.00574085        3.85569864 
C      1.89651198       -0.59972976        2.41324707 
O      0.82214136       -0.71600416        1.83338325 
O      2.94154294       -0.11209647        1.71795783 
N      0.82399764       -1.22084992        4.50717819 
H      2.63304256       -0.18801518        4.36831353 
H      2.80654020       -1.86703735        3.83155249 
H      3.74919541       -0.05607559        2.26689670 
H      0.37047155       -2.07316100        4.17173851 
H      0.95522941       -1.32042446        5.51439239 
11
Iteration: 46
Na      0.00000000        0.00000000        0.00000000 
C      2.10773903       -1.00604282        3.85219103 
C      1.91009477       -0.60261084        2.40846415 
O      0.83790910       -0.71808305        1.82385577 
O      2.95930390       -0.11978418        1.71570870 
N      0.83068709       -1.22068979        4.50080644 
H      2.63877296       -0.18740132        4.36543788 
H      2.81197820       -1.86769360        3.83314560 
H      3.76594807       -0.06842147        2.26917795 
H      0.37630391       -2.07087039        4.16320847 
H      0.95950154       -1.32180573        5.50789782 
11
Iteration: 47
Na      0.00000000        0.00000000        0.00000000 
C      2.12774168       -1.00568189        3.84170141 
C      1.94774350       -0.60800886        2.39461275 
O      0.87989720       -0.72092010        1.80078295 
O      3.00560522       -0.13477159        1.70950903 
N      0.84290316       -1.21884741        4.47737521 
H      2.65256474       -0.18497155        4.35885647 
H      2.83034288       -1.86846602        3.83657918 
H      3.80942349       -0.09000644        2.26808275 
H      0.38879900       -2.06566065        4.13087754 
H      0.96113281       -1.32522564        5.48538348 
11
Iteration: 48
Na      0.00000000        0.00000000        0.00000000 
C      2.15065929       -1.00763479        3.83348052 
C      1.98790849       -0.61844312        2.38297312 
O      0.92601631       -0.72822294        1.77746372 
O      3.05563618       -0.15723412        1.70607758 