xc                 pbe
vdw_correction_hirshfeld
relativistic       atomic_zora scalar
charge             1.0
sc_accuracy_rho    1E-4
sc_accuracy_eev    1E-3
sc_accuracy_etot   1E-6
sc_accuracy_forces 5E-4
sc_iter_limit      10000
relax_geometry trm 5E-3
relax_geometry   bfgs_textbook 1.e-2
