14
Iteration: 0
Ca      0.0   0.0   0.0 
O     -2.6386    0.6514   -1.7062 
C     -2.5204    1.2472   -2.8100 
O     -1.2882    1.2373   -3.4582 
C     -3.7120    1.9169   -3.4402 
N     -4.4344    2.7079   -2.4411 
C     -4.6283    0.8734   -4.0898 
H     -1.1620    1.6839   -4.3586 
H     -3.3522    2.6058   -4.2361 
H     -4.9150    2.0678   -1.7667 
H     -5.1796    3.2580   -2.9275 
H     -5.0089    0.1564   -3.3308 
H     -5.4929    1.3756   -4.5733 
H     -4.0716    0.3099   -4.8691 
14
Iteration: 1
Ca      0.00000000        0.00000000        0.00000000 
O     -2.54886426        0.70301806       -1.68315401 
C     -2.51730443        1.23960341       -2.80190123 
O     -1.30951490        1.24257882       -3.44876446 
C     -3.72609898        1.90754534       -3.43842190 
N     -4.41120937        2.72195253       -2.42868085 
C     -4.61550802        0.85006283       -4.11852339 
H     -1.26864023        1.69644116       -4.33074371 
H     -3.36431954        2.60113914       -4.22263195 
H     -4.90209756        2.09563146       -1.77294607 
H     -5.14623437        3.26526437       -2.90527552 
H     -5.00852685        0.14630470       -3.36615687 
H     -5.47005616        1.36308060       -4.59087113 
H     -4.08807681        0.27773605       -4.90154089 
14
Iteration: 2
Ca      0.00000000        0.00000000        0.00000000 
O     -2.45294734        0.72938586       -1.66241260 
C     -2.47807494        1.28809543       -2.75344346 
O     -1.32876641        1.23206656       -3.46583658 
C     -3.72106918        1.89741053       -3.42945945 
N     -4.39677433        2.72340940       -2.42268041 
C     -4.59893695        0.83029986       -4.12963969 
H     -1.39818284        1.70404505       -4.32776060 
H     -3.36056719        2.59492686       -4.20480944 
H     -4.89639180        2.11823142       -1.76983086 
H     -5.11666789        3.27305569       -2.89291297 
H     -5.00901886        0.12634623       -3.39546899 
H     -5.44446313        1.34300623       -4.60720565 
H     -4.08145948        0.25986001       -4.91202060 
14
Iteration: 3
Ca      0.00000000        0.00000000        0.00000000 
O     -2.36731168        0.79750108       -1.60998975 
C     -2.45981322        1.25922104       -2.75622854 
O     -1.32805857        1.25530102       -3.48639535 
C     -3.71324252        1.88123681       -3.42090489 
N     -4.38705550        2.71153199       -2.41698206 
C     -4.59341796        0.81913183       -4.12967316 
H     -1.47657873        1.71701830       -4.34793775 
H     -3.34970130        2.58061589       -4.19245286 
H     -4.89955378        2.12119426       -1.76145425 
H     -5.09184815        3.28482454       -2.88204096 
H     -5.01484679        0.10758796       -3.41051446 
H     -5.43024091        1.33852163       -4.61468959 
H     -4.06920696        0.25680216       -4.91156479 
14
Iteration: 4
Ca      0.00000000        0.00000000        0.00000000 
O     -2.34159954        0.80178719       -1.60750487 
C     -2.44239394        1.26420870       -2.75064166 
O     -1.32800253        1.24757896       -3.51660773 
C     -3.70698758        1.87879535       -3.40364112 
N     -4.38886485        2.70454096       -2.40519067 
C     -4.58129118        0.81752832       -4.11985445 
H     -1.48964696        1.70581077       -4.37197928 
H     -3.34411597        2.57884950       -4.17698306 
H     -4.91019268        2.11409017       -1.75203308 
H     -5.08418557        3.29116104       -2.87548192 
H     -5.00740145        0.10036084       -3.40633322 
H     -5.41654703        1.33918880       -4.60972260 
H     -4.04725449        0.26022256       -4.90202985 
14
Iteration: 5
Ca      0.00000000        0.00000000        0.00000000 
O     -2.27983207        0.82539474       -1.60899622 
C     -2.41334461        1.27485731       -2.75185834 
O     -1.33528874        1.23737944       -3.57736818 
C     -3.70079298        1.87916832       -3.37769759 
N     -4.39458890        2.69142241       -2.38360274 
C     -4.56093240        0.81619504       -4.10810100 
H     -1.54245155        1.67871979       -4.42816383 
H     -3.34372837        2.58531525       -4.15054594 
H     -4.93763581        2.10133819       -1.74383572 
H     -5.06795962        3.30386089       -2.86008503 
H     -4.99502115        0.08962501       -3.40617433 
H     -5.39281522        1.33854639       -4.60718541 
H     -4.00925020        0.26748517       -4.88805202 
14
Iteration: 6
Ca      0.00000000        0.00000000        0.00000000 
O     -2.22262703        0.84871065       -1.61960777 
C     -2.38863834        1.28334569       -2.76214227 
O     -1.34243590        1.22465938       -3.62979179 
C     -3.69450850        1.88430390       -3.35760108 
N     -4.39708525        2.67707539       -2.35943128 
C     -4.54092457        0.81750185       -4.09802430 
H     -1.58711049        1.64186289       -4.47973271 
H     -3.34863747        2.60187740       -4.12626265 
H     -4.96043468        2.08287062       -1.73982500 
H     -5.05122308        3.31170072       -2.83551346 
H     -4.97664506        0.08452512       -3.40309203 
H     -5.37213439        1.33544859       -4.60367920 
H     -3.97543900        0.27425482       -4.87377969 
14
Iteration: 7
Ca      0.00000000        0.00000000        0.00000000 
O     -2.15378565        0.88270712       -1.63776113 
C     -2.36287139        1.29384946       -2.78225780 
O     -1.35470467        1.20712754       -3.68965075 
C     -3.68713210        1.89410336       -3.34018740 
N     -4.39739867        2.65725694       -2.32796327 
C     -4.51829657        0.82267318       -4.09118302 
H     -1.64318050        1.58643612       -4.54419812 
H     -3.35924893        2.63126424       -4.09897053 
H     -4.98374299        2.05285141       -1.74057307 
H     -5.03082147        3.31718873       -2.79491561 
H     -4.95033513        0.08486303       -3.39999941 
H     -5.35089372        1.33138438       -4.60229726 
H     -3.94140076        0.28279292       -4.86065534 
14
Iteration: 8
Ca      0.00000000        0.00000000        0.00000000 
O     -2.09161610        0.92061214       -1.66223683 
C     -2.34276760        1.30298599       -2.80905283 
O     -1.37277414        1.17768901       -3.74327409 
C     -3.67796227        1.90704962       -3.33019741 
N     -4.39260530        2.63134748       -2.29140959 
C     -4.49760195        0.83328865       -4.09070686 
H     -1.69025545        1.51557206       -4.60229011 
H     -3.37028573        2.66962916       -4.07222393 
H     -4.99943305        2.00894441       -1.74686101 
H     -5.00826894        3.31889843       -2.73628494 
H     -4.91956807        0.09235674       -3.39823706 
H     -5.33418205        1.33032606       -4.60309247 
H     -3.91656346        0.29402470       -4.85486870 
14
Iteration: 9
Ca      0.00000000        0.00000000        0.00000000 
O     -2.03107361        0.95914520       -1.66826409 
C     -2.32248582        1.30959970       -2.82193642 
O     -1.38860397        1.14917544       -3.78789263 
C     -3.66653463        1.91116449       -3.32090558 
N     -4.38294173        2.60492723       -2.25983745 
C     -4.48220794        0.84226887       -4.09507082 
H     -1.74206866        1.45720958       -4.65367968 
H     -3.37204969        2.69291731       -4.04752248 
H     -5.00480127        1.96788690       -1.75145530 
H     -4.98488109        3.31921548       -2.68126290 
H     -4.89846341        0.09561943       -3.40514612 
H     -5.32107209        1.33596804       -4.60470893 
H     -3.90267365        0.30695109       -4.86139622 
14
Iteration: 10
Ca      0.00000000        0.00000000        0.00000000 
O     -2.01796707        0.96535035       -1.68255640 
C     -2.31800945        1.30102856       -2.83244432 
O     -1.40112103        1.10414963       -3.79615831 
C     -3.65311468        1.91260078       -3.32174620 
N     -4.36555209        2.57730816       -2.23374344 
C     -4.47872090        0.85790433       -4.10656039 
H     -1.74749354        1.40687374       -4.66038660 
H     -3.36315379        2.70944687       -4.03013768 
H     -4.99163547        1.92286248       -1.75911030 
H     -4.96421405        3.31108335       -2.62272501 
H     -4.88698024        0.10588051       -3.41660224 
H     -5.32159473        1.35574526       -4.60319059 
H     -3.91262780        0.32540589       -4.88304905 
14
Iteration: 11
Ca      0.00000000        0.00000000        0.00000000 
O     -1.98704542        0.97349623       -1.68633431 
C     -2.30518595        1.29120311       -2.83855173 
O     -1.40966431        1.06255418       -3.82345458 
C     -3.64282548        1.91070849       -3.31074266 
N     -4.35604715        2.55482052       -2.21100055 
C     -4.47287241        0.86864088       -4.11021786 
H     -1.76034579        1.36981458       -4.67954976 
H     -3.35479704        2.71804882       -4.00828477 
H     -4.99152853        1.89147129       -1.75869493 
H     -4.94649208        3.30413625       -2.58433169 
H     -4.88067305        0.10559018       -3.43048272 
H     -5.31707838        1.37655491       -4.59572291 
H     -3.91089412        0.34641738       -4.89865391 
14
Iteration: 12
Ca      0.00000000        0.00000000        0.00000000 
O     -1.96458827        0.95938152       -1.68665486 
C     -2.29353466        1.26547323       -2.83735475 
O     -1.41315919        1.01906978       -3.83498554 
C     -3.63109532        1.89978418       -3.29635927 
N     -4.34364254        2.52861125       -2.19287006 
C     -4.47477953        0.88400546       -4.11962696 
H     -1.77403985        1.33147779       -4.69113598 
H     -3.33426601        2.71390797       -3.98243545 
H     -4.98559674        1.86346807       -1.75449353 
H     -4.92758367        3.28746785       -2.55281051 
H     -4.88814420        0.10224570       -3.46187876 
H     -5.31877999        1.41892453       -4.58209329 
H     -3.92225367        0.38201767       -4.93270943 
14
Iteration: 13
Ca      0.00000000        0.00000000        0.00000000 
O     -1.94716580        0.93462863       -1.68382729 
C     -2.28800846        1.22870731       -2.83498335 
O     -1.41899114        0.97170108       -3.83508983 
C     -3.62151433        1.88353648       -3.28420186 
N     -4.32829441        2.49612515       -2.17379164 
C     -4.48256686        0.90326526       -4.13705966 
H     -1.78095662        1.28776604       -4.69196332 
H     -3.30815591        2.70610985       -3.95434896 
H     -4.98069364        1.83107989       -1.74995192 
H     -4.90071653        3.27344048       -2.51878760 
H     -4.90129340        0.10151016       -3.50618583 
H     -5.32549414        1.46993905       -4.56913355 
H     -3.94476982        0.42604485       -4.97795069 
14
Iteration: 14
Ca      0.00000000        0.00000000        0.00000000 
O     -1.93006760        0.90880248       -1.68610516 
C     -2.28371371        1.19703304       -2.83408685 
O     -1.43002107        0.92037204       -3.84059583 
C     -3.61287539        1.87254719       -3.27243148 
N     -4.31575159        2.46515712       -2.15090571 
C     -4.48504884        0.92566889       -4.15481994 
H     -1.79289069        1.23040633       -4.70050888 
H     -3.28453152        2.70678004       -3.92358694 
H     -4.97554683        1.79863487       -1.74218709 
H     -4.87829509        3.25411580       -2.48027251 
H     -4.90746959        0.10735090       -3.54980262 
H     -5.32598824        1.51418809       -4.56090092 
H     -3.96019672        0.47209007       -5.01589380 
14
Iteration: 15
Ca      0.00000000        0.00000000        0.00000000 
O     -1.91321583        0.88227449       -1.68959074 
C     -2.28317345        1.16409522       -2.83494796 
O     -1.44841250        0.86380088       -3.84782649 
C     -3.60651972        1.86261464       -3.26179452 
N     -4.30526528        2.43179339       -2.12474631 
C     -4.48396740        0.95153790       -4.17481803 
H     -1.81455776        1.15867143       -4.71145078 
H     -3.26177284        2.71139754       -3.88781836 
H     -4.97466970        1.76356913       -1.73356441 
H     -4.85417533        3.23856797       -2.43500371 
H     -4.91055907        0.11774481       -3.59916457 
H     -5.31990520        1.55423890       -4.55933754 
H     -3.96703336        0.52566526       -5.04918609 
14
Iteration: 16
Ca      0.00000000        0.00000000        0.00000000 
O     -1.90257664        0.85621886       -1.68908061 
C     -2.28485834        1.12983977       -2.83360553 
O     -1.46885341        0.80044897       -3.85327346 
C     -3.59993136        1.85162902       -3.25154559 
N     -4.29503919        2.40217531       -2.10234559 
C     -4.48196749        0.97786434       -4.19367382 
H     -1.83792109        1.08901812       -4.71479199 
H     -3.23917153        2.71217383       -3.85180347 
H     -4.96872949        1.73380200       -1.72410130 
H     -4.83567033        3.21812728       -2.39269207 
H     -4.91271950        0.12427241       -3.65108499 
H     -5.31290886        1.59756094       -4.55650060 
H     -3.97012772        0.58493530       -5.08479202 
14
Iteration: 17
Ca      0.00000000        0.00000000        0.00000000 
O     -1.89240598        0.83519965       -1.69134606 
C     -2.28635421        1.09776948       -2.83451402 
O     -1.49371177        0.73322762       -3.86266903 
C     -3.59234137        1.84246244       -3.24097944 
N     -4.28638547        2.37003012       -2.07695947 
C     -4.47453546        1.00553659       -4.21103230 
H     -1.87620299        1.00672836       -4.72322666 
H     -3.21939527        2.71668047       -3.81189068 
H     -4.97319755        1.69653108       -1.72189666 
H     -4.81241018        3.20650738       -2.34432228 
H     -4.90682107        0.13097750       -3.70285740 
H     -5.30231603        1.63914911       -4.55318045 
H     -3.96306725        0.64868700       -5.11765923 
14
Iteration: 18
Ca      0.00000000        0.00000000        0.00000000 
O     -1.90001449        0.81078001       -1.68287287 
C     -2.29540438        1.06094605       -2.82814516 
O     -1.52223267        0.66558012       -3.85430988 
C     -3.58493537        1.82954200       -3.23257304 
N     -4.28207249        2.34181054       -2.06196547 
C     -4.46334234        1.03640653       -4.22890629 
H     -1.92643947        0.91926443       -4.71223059 
H     -3.19592897        2.71167043       -3.77031861 
H     -4.97435707        1.66942705       -1.71841291 
H     -4.79863565        3.18862104       -2.30798758 
H     -4.89613081        0.14017429       -3.76345226 
H     -5.28942311        1.68146352       -4.54925842 
H     -3.94523260        0.72562318       -5.14901288 
14
Iteration: 19
Ca      0.00000000        0.00000000        0.00000000 
O     -1.88297396        0.79927658       -1.67820941 
C     -2.29334726        1.02833250       -2.82646220 
O     -1.54504428        0.59775753       -3.86055796 
C     -3.57365015        1.81884711       -3.21997204 
N     -4.27350320        2.30760326       -2.04008823 
C     -4.45815045        1.06569204       -4.24949960 
H     -1.96748135        0.83650281       -4.71648097 
H     -3.17085993        2.71388074       -3.73012541 
H     -4.97245950        1.63341975       -1.71586408 
H     -4.77964114        3.16761742       -2.26458163 
H     -4.89172535        0.14808782       -3.81865483 
H     -5.28581808        1.72974049       -4.54254402 
H     -3.94678020        0.78792245       -5.18974913 
14
Iteration: 20
Ca      0.00000000        0.00000000        0.00000000 
O     -1.87783579        0.77561130       -1.67351031 
C     -2.29450629        0.99635678       -2.81973438 
O     -1.56480291        0.53711109       -3.85509532 
C     -3.56290767        1.81030235       -3.20658339 
N     -4.26875412        2.27834251       -2.02331118 
C     -4.45174156        1.09490002       -4.26638212 
H     -2.00057017        0.76418580       -4.70698271 
H     -3.14286400        2.71324334       -3.69247068 
H     -4.97539944        1.60083805       -1.71721460 
H     -4.76554805        3.14564443       -2.23495349 
H     -4.88962298        0.16508803       -3.86688053 
H     -5.27902262        1.77062388       -4.53932348 
H     -3.94511367        0.84343320       -5.21704507 
14
Iteration: 21
Ca      0.00000000        0.00000000        0.00000000 
O     -1.85581477        0.77487360       -1.66520226 
C     -2.29035666        0.97714649       -2.81074904 
O     -1.58942421        0.48275425       -3.84939277 
C     -3.54826774        1.80916001       -3.18882459 
N     -4.27339820        2.24659188       -2.01154341 
C     -4.43700625        1.12606289       -4.27959055 
H     -2.05393176        0.68189176       -4.69416527 
H     -3.11152861        2.71520368       -3.65481893 
H     -4.98266570        1.56301525       -1.72983922 
H     -4.76405501        3.11582931       -2.21469608 
H     -4.88122608        0.19939931       -3.90468210 
H     -5.26700322        1.80279159       -4.53945389 
H     -3.93505595        0.88755203       -5.22796542 
14
Iteration: 22
Ca      0.00000000        0.00000000        0.00000000 
O     -1.85881125        0.74297226       -1.66286211 
C     -2.29865232        0.94318993       -2.80443432 
O     -1.61373194        0.42730299       -3.83864246 
C     -3.54372083        1.79782385       -3.18046640 
N     -4.26702194        2.21987564       -1.99658956 
C     -4.42919837        1.15115174       -4.29295605 
H     -2.08721673        0.60962420       -4.68102480 
H     -3.08841999        2.70879201       -3.62066501 
H     -4.98109129        1.53690754       -1.72748886 
H     -4.74983294        3.10236194       -2.18046985 
H     -4.87984077        0.20511561       -3.95683274 
H     -5.25142880        1.84113305       -4.53480160 
H     -3.92370809        0.95528614       -5.25627273 
14
Iteration: 23
Ca      0.00000000        0.00000000        0.00000000 
O     -1.84698001        0.73834805       -1.66058129 
C     -2.30022873        0.92588698       -2.80030536 
O     -1.63878193        0.38142747       -3.83623417 
C     -3.53703562        1.79266894       -3.17237695 
N     -4.26249776        2.19966181       -1.98432653 
C     -4.41412979        1.16903141       -4.29732811 
H     -2.12888129        0.54467953       -4.67198123 
H     -3.07397130        2.70567740       -3.59402904 
H     -4.98115716        1.51191460       -1.73422349 
H     -4.74401251        3.08454016       -2.15299100 
H     -4.86721575        0.21400866       -3.98690638 
H     -5.23201613        1.86753548       -4.52627302 
H     -3.90246353        1.00464455       -5.26692576 
14
Iteration: 24
Ca      0.00000000        0.00000000        0.00000000 
O     -1.82525934        0.74014137       -1.65901407 
C     -2.30074312        0.91046413       -2.79353472 
O     -1.66980576        0.33908337       -3.82643852 
C     -3.52993732        1.78687760       -3.16336976 
N     -4.26238013        2.17668983       -1.97766406 
C     -4.39559881        1.18671372       -4.30221670 
H     -2.18273653        0.48196816       -4.64714346 
H     -3.05652368        2.70027601       -3.56744259 
H     -4.98134941        1.48677215       -1.74911543 
H     -4.74821329        3.06216880       -2.13219966 
H     -4.85756838        0.23134131       -4.01647953 
H     -5.20638941        1.89590580       -4.52073582 
H     -3.87643059        1.04859387       -5.26846360 
14
Iteration: 25
Ca      0.00000000        0.00000000        0.00000000 
O     -1.79511278        0.74592786       -1.65825155 
C     -2.29751595        0.88780204       -2.78999484 
O     -1.70664655        0.27179408       -3.82861219 
C     -3.51830716        1.78114968       -3.14953309 
N     -4.26265018        2.14155437       -1.95889920 
C     -4.37833433        1.21821937       -4.31840519 
H     -2.25382569        0.38288189       -4.64101526 
H     -3.03317103        2.70516754       -3.52460860 
H     -4.98858981        1.44782466       -1.76076179 
H     -4.74323403        3.03454231       -2.09430094 
H     -4.84731766        0.25539219       -4.06519017 
H     -5.18541067        1.93659349       -4.52166287 
H     -3.85543944        1.10854776       -5.28452835 
14
Iteration: 26
Ca      0.00000000        0.00000000        0.00000000 
O     -1.79210500        0.72293050       -1.65656290 
C     -2.30037604        0.85942798       -2.78251927 
O     -1.72697572        0.22017732       -3.81613909 
C     -3.50985497        1.77283623       -3.13904155 
N     -4.25962509        2.11902929       -1.94774586 
C     -4.36933955        1.24145797       -4.32767614 
H     -2.28054969        0.32993007       -4.61734958 
H     -3.01093772        2.69730679       -3.49634107 
H     -4.99072280        1.42390352       -1.76547885 
H     -4.73723407        3.01283029       -2.07630548 
H     -4.84516472        0.27390888       -4.10004319 
H     -5.17213791        1.96991360       -4.51739898 
H     -3.84315985        1.15769560       -5.29803050 
14
Iteration: 27
Ca      0.00000000        0.00000000        0.00000000 
O     -1.77018736        0.72431875       -1.66738433 
C     -2.29468885        0.84697534       -2.78061563 
O     -1.74977591        0.18239503       -3.80862979 
C     -3.50006496        1.77047789       -3.12883799 
N     -4.26267617        2.09974420       -1.93500793 
C     -4.35181500        1.25992113       -4.32788788 
H     -2.32242133        0.27920689       -4.59821170 
H     -3.00169580        2.69665459       -3.47225581 
H     -5.00094423        1.40317919       -1.77645551 
H     -4.73978084        2.99098220       -2.06448545 
H     -4.83591477        0.29841374       -4.11281499 
H     -5.15065461        1.98513518       -4.51917033 
H     -3.81149629        1.18619162       -5.28484083 
14
Iteration: 28
Ca      0.00000000        0.00000000        0.00000000 
O     -1.74660069        0.72547391       -1.66594344 
C     -2.29485765        0.82460357       -2.77632212 
O     -1.78035496        0.13125700       -3.80053726 
C     -3.49281453        1.75931164       -3.12015498 
N     -4.26087588        2.07081368       -1.92453242 
C     -4.33766395        1.28178495       -4.33790800 
H     -2.37280587        0.21234692       -4.57866316 
H     -2.98311247        2.69050645       -3.43873228 
H     -5.00111055        1.37734263       -1.78298959 
H     -4.73456931        2.97033618       -2.03914136 
H     -4.82801495        0.31354321       -4.15283998 
H     -5.13294645        2.01914449       -4.51347558 
H     -3.78988487        1.23817508       -5.29727808 
14
Iteration: 29
Ca      0.00000000        0.00000000        0.00000000 
O     -1.72712630        0.72729054       -1.66781916 
C     -2.29216813        0.81191588       -2.77176523 
O     -1.80001564        0.09633409       -3.79146654 
C     -3.48595347        1.75144603       -3.11229390 
N     -4.25881006        2.05177956       -1.91640730 
C     -4.32517085        1.29588917       -4.34028393 
H     -2.40202939        0.17330509       -4.56096211 
H     -2.96992069        2.68610285       -3.41282398 
H     -5.00174537        1.35952798       -1.78896932 
H     -4.73052179        2.95328305       -2.02659768 
H     -4.82185244        0.32670838       -4.17329498 
H     -5.11802967        2.04007341       -4.50892606 
H     -3.77102873        1.26407879       -5.29522484 
14
Iteration: 30
Ca      0.00000000        0.00000000        0.00000000 
O     -1.71009385        0.72712195       -1.67183392 
C     -2.29106723        0.79938276       -2.76723889 
O     -1.81879861        0.06482087       -3.77819773 
C     -3.48086909        1.74329022       -3.10387103 
N     -4.25778613        2.03444525       -1.90864114 
C     -4.31283001        1.30968363       -4.34101337 
H     -2.42617617        0.13721889       -4.54484455 
H     -2.95819955        2.67998011       -3.38506823 
H     -5.00357567        1.34413332       -1.79314113 
H     -4.72574275        2.93793946       -2.01745591 
H     -4.81556690        0.34048084       -4.19237354 
H     -5.10300255        2.05853913       -4.50573324 
H     -3.75097636        1.28699352       -5.29162831 
14
Iteration: 31
Ca      0.00000000        0.00000000        0.00000000 
O     -1.69073483        0.73289620       -1.67850196 
C     -2.29041022        0.78642793       -2.76405122 
O     -1.84542624        0.01572936       -3.76820661 
C     -3.47408756        1.73862229       -3.09412016 
N     -4.25914851        2.01310586       -1.89729922 
C     -4.29762472        1.32922631       -4.34345944 
H     -2.45622788        0.09008101       -4.53026637 
H     -2.94635852        2.67728208       -3.35307632 
H     -5.00891194        1.32137401       -1.80066207 
H     -4.72292817        2.91986870       -2.00054881 
H     -4.80702521        0.36256481       -4.21371345 
H     -5.08447082        2.07949920       -4.50720566 
H     -3.72706892        1.31308273       -5.28743972 
14
Iteration: 32
Ca      0.00000000        0.00000000        0.00000000 
O     -1.68376734        0.72563131       -1.67660043 
C     -2.29303227        0.76944539       -2.75669633 
O     -1.86128917       -0.01465597       -3.75131181 
C     -3.46941052        1.73164726       -3.08574182 
N     -4.25858893        1.99862706       -1.89041434 
C     -4.28681144        1.34208087       -4.34538058 
H     -2.47100629        0.06051828       -4.51570575 
H     -2.93262092        2.66938494       -3.32806199 
H     -5.00951121        1.30805074       -1.79926983 
H     -4.71983626        2.90593541       -1.98930900 
H     -4.80432173        0.37546234       -4.23379001 
H     -5.06784091        2.09861805       -4.50800918 
H     -3.70878090        1.33385945       -5.28634178 
14
Iteration: 33
Ca      0.00000000        0.00000000        0.00000000 
O     -1.67586368        0.72709647       -1.67503818 
C     -2.29740462        0.75733507       -2.74857780 
O     -1.87982062       -0.04271133       -3.73053531 
C     -3.46671629        1.72504573       -3.08025591 
N     -4.26098975        1.98564532       -1.88762259 
C     -4.27445545        1.34954906       -4.34522894 
H     -2.47760751        0.04798868       -4.50221393 
H     -2.92389002        2.66086819       -3.30571442 
H     -5.01046918        1.29697652       -1.79758898 
H     -4.72035338        2.89619914       -1.97908970 
H     -4.79932284        0.39087793       -4.24370021 
H     -5.04886262        2.11477119       -4.51064253 
H     -3.68630065        1.33768943       -5.27956368 
14
Iteration: 34
Ca      0.00000000        0.00000000        0.00000000 
O     -1.67236667        0.71366614       -1.66818116 
C     -2.30248734        0.73783350       -2.73685405 
O     -1.90376296       -0.08092699       -3.71381297 
C     -3.46074781        1.72037089       -3.07047103 
N     -4.26299731        1.96826039       -1.88079608 
C     -4.25879786        1.36531319       -4.35025119 
H     -2.50934179        0.00183721       -4.48678084 
H     -2.90674334        2.65601476       -3.27939575 
H     -5.01538922        1.27640451       -1.80222550 
H     -4.72118917        2.87938042       -1.96041098 
H     -4.79425684        0.40666525       -4.26981949 
H     -5.02422004        2.14053425       -4.51182805 
H     -3.66131681        1.36949306       -5.28149656 
14
Iteration: 35
Ca      0.00000000        0.00000000        0.00000000 
O     -1.66650008        0.70901930       -1.66178386 
C     -2.30423456        0.72537054       -2.72678494 
O     -1.92061035       -0.10999307       -3.69779519 
C     -3.45523632        1.71663224       -3.06175367 
N     -4.26532893        1.95639223       -1.87609091 
C     -4.24571162        1.37556978       -4.35090648 
H     -2.52311270       -0.01839995       -4.47008741 
H     -2.89686345        2.65111786       -3.26001872 
H     -5.01676864        1.26381509       -1.80271730 
H     -4.72319372        2.86696414       -1.94964038 
H     -4.79231099        0.41900527       -4.28350158 
H     -5.00340520        2.15517443       -4.51612528 
H     -3.63864093        1.38140382       -5.27416045 
14
Iteration: 36
Ca      0.00000000        0.00000000        0.00000000 
O     -1.66808985        0.69940898       -1.65285201 
C     -2.30698253        0.71481509       -2.71626043 
O     -1.93498249       -0.13245386       -3.68149820 
C     -3.44994522        1.71486903       -3.05463710 
N     -4.26802409        1.94702809       -1.87303368 
C     -4.23204350        1.38193192       -4.35099443 
H     -2.53151553       -0.03183892       -4.45516836 
H     -2.88975243        2.64940251       -3.24632100 
H     -5.01827493        1.25121633       -1.80495923 
H     -4.72533688        2.85882112       -1.93831132 
H     -4.78543681        0.43162970       -4.28713997 
H     -4.98276571        2.16673366       -4.51860477 
H     -3.61661061        1.38549325       -5.26661048 
14
Iteration: 37
Ca      0.00000000        0.00000000        0.00000000 
O     -1.66520725        0.69483231       -1.64240814 
C     -2.30899996        0.70725735       -2.70456114 
O     -1.95471930       -0.15526309       -3.66281829 
C     -3.44502135        1.71300281       -3.04577589 
N     -4.27460865        1.93654402       -1.87170472 
C     -4.21478516        1.38839468       -4.35056546 
H     -2.54950215       -0.04909456       -4.43766023 
H     -2.88424376        2.64795139       -3.22990020 
H     -5.02234092        1.23911549       -1.80993688 
H     -4.73113563        2.84814316       -1.93046142 
H     -4.77511535        0.44405714       -4.29167377 
H     -4.95870968        2.17962002       -4.51992901 
H     -3.58868421        1.39018927       -5.25847827 
14
Iteration: 38
Ca      0.00000000        0.00000000        0.00000000 
O     -1.66697650        0.68309459       -1.63216386 
C     -2.31242019        0.69641088       -2.69382133 
O     -1.97455899       -0.18010882       -3.64288317 
C     -3.44039454        1.70941310       -3.03767545 
N     -4.27882649        1.92343474       -1.86842428 