14
Iteration: 0
Ca      0.0   0.0   0.0 
O     -4.4420    2.2126    3.2938 
C     -4.3238    2.8084    2.1900 
O     -3.0916    2.7985    1.5418 
C     -5.5154    3.4781    1.5598 
N     -6.2378    4.2691    2.5589 
C     -6.4317    2.4346    0.9102 
H     -2.9654    3.2451    0.6414 
H     -5.1556    4.1670    0.7639 
H     -6.7184    3.6290    3.2333 
H     -6.9830    4.8192    2.0725 
H     -6.8123    1.7176    1.6692 
H     -7.2963    2.9368    0.4267 
H     -5.8750    1.8711    0.1309 
14
Iteration: 1
Ca      0.00000000        0.00000000        0.00000000 
O     -4.41680326        2.19720475        3.25435604 
C     -4.33105786        2.79617749        2.19236065 
O     -3.12456969        2.76015244        1.51735439 
C     -5.52236114        3.48514354        1.54987917 
N     -6.21485065        4.28351854        2.56357796 
C     -6.41609065        2.42026108        0.88840051 
H     -3.07622003        3.29193380        0.67681382 
H     -5.16606075        4.18360190        0.76840609 
H     -6.66680180        3.66089595        3.25205940 
H     -6.96201259        4.82757782        2.10753512 
H     -6.79285469        1.71588503        1.64921553 
H     -7.27847389        2.91683873        0.41440598 
H     -5.88168531        1.84556752        0.11123129 
14
Iteration: 2
Ca      0.00000000        0.00000000        0.00000000 
O     -4.38872142        2.18361777        3.23159178 
C     -4.33470846        2.75873696        2.18223511 
O     -3.14989767        2.72060932        1.47253258 
C     -5.51919447        3.48671573        1.53542923 
N     -6.18365060        4.28546661        2.56476281 
C     -6.40910805        2.41363401        0.86783173 
H     -3.19646297        3.33015220        0.68978987 
H     -5.16207329        4.19375008        0.76776733 
H     -6.59917814        3.68238370        3.28127594 
H     -6.93600015        4.83710750        2.14863034 
H     -6.77901803        1.71150650        1.62634424 
H     -7.27097752        2.89972459        0.39458101 
H     -5.87823567        1.83758264        0.09630842 
14
Iteration: 3
Ca      0.00000000        0.00000000        0.00000000 
O     -4.37156858        2.15608728        3.21812526 
C     -4.32541829        2.75802975        2.18149696 
O     -3.16076374        2.70096539        1.42900824 
C     -5.51500543        3.48566992        1.53233197 
N     -6.16679146        4.28303006        2.56648328 
C     -6.40570574        2.41417761        0.85712048 
H     -3.25253959        3.32063447        0.66959117 
H     -5.15648234        4.19521505        0.76820872 
H     -6.55353499        3.68798707        3.30584715 
H     -6.92771808        4.83762556        2.17213853 
H     -6.77367761        1.70832819        1.61232310 
H     -7.26866617        2.89567381        0.38182873 
H     -5.86909951        1.84274558        0.08667589 
14
Iteration: 4
Ca      0.00000000        0.00000000        0.00000000 
O     -4.33947005        2.13515552        3.20465519 
C     -4.32311791        2.72250626        2.15149291 
O     -3.17631936        2.69226327        1.35861446 
C     -5.51547990        3.48110239        1.53115898 
N     -6.14283726        4.27647218        2.57625369 
C     -6.41273220        2.42038249        0.84439111 
H     -3.32594346        3.31605070        0.62675150 
H     -5.15196266        4.19328634        0.77036766 
H     -6.48716112        3.69117656        3.34666759 
H     -6.91834631        4.83684682        2.21519869 
H     -6.78086389        1.70617890        1.59255573 
H     -7.27403102        2.90525010        0.36808991 
H     -5.86657972        1.85861890        0.07194825 
14
Iteration: 5
Ca      0.00000000        0.00000000        0.00000000 
O     -4.31449463        2.11084420        3.17367458 
C     -4.31040397        2.71343402        2.12754815 
O     -3.18402028        2.67502704        1.29777961 
C     -5.51189535        3.47731154        1.53339424 
N     -6.12553996        4.26672620        2.58775903 
C     -6.41753644        2.42599160        0.84267761 
H     -3.35840013        3.32684921        0.58719457 
H     -5.15085733        4.19139327        0.77143579 
H     -6.44725256        3.68249732        3.36686811 
H     -6.90958923        4.82549571        2.24174980 
H     -6.78850627        1.70542875        1.58479362 
H     -7.27730579        2.91754754        0.36819822 
H     -5.86996997        1.87033482        0.06505709 
14
Iteration: 6
Ca      0.00000000        0.00000000        0.00000000 
O     -4.28264641        2.08395072        3.11533016 
C     -4.29518684        2.70702928        2.08118583 
O     -3.19412804        2.66556776        1.21525725 
C     -5.51179715        3.47495720        1.53626067 
N     -6.10310082        4.24897802        2.61167418 
C     -6.43480192        2.44035069        0.84523820 
H     -3.37867583        3.32302761        0.51941305 
H     -5.16218213        4.19500861        0.77148999 
H     -6.39471242        3.65907851        3.39342957 
H     -6.90096248        4.80062684        2.28569525 
H     -6.81054642        1.71144653        1.57926368 
H     -7.29220639        2.94807807        0.37963640 
H     -5.89353757        1.89189893        0.05563871 
14
Iteration: 7
Ca      0.00000000        0.00000000        0.00000000 
O     -4.24376580        2.05549565        3.03892667 
C     -4.28296033        2.69454825        2.01661289 
O     -3.20929426        2.66144244        1.12234003 
C     -5.51380057        3.47470373        1.53369969 
N     -6.07458631        4.22662130        2.64157082 
C     -6.46167269        2.46046188        0.84813365 
H     -3.39666092        3.33363743        0.44034487 
H     -5.18852477        4.20853860        0.76866418 
H     -6.33000685        3.62423395        3.42520689 
H     -6.89279878        4.76542606        2.34344761 
H     -6.83955253        1.72744231        1.57748531 
H     -7.31763405        2.98971954        0.40161618 
H     -5.94155298        1.91429230        0.04188234 
14
Iteration: 8
Ca      0.00000000        0.00000000        0.00000000 
O     -4.20336462        2.02610722        2.96009971 
C     -4.27474180        2.68287191        1.95106270 
O     -3.22627718        2.66701574        1.03991024 
C     -5.51520481        3.47650064        1.52412523 
N     -6.04253989        4.20347646        2.66862616 
C     -6.49001760        2.48096574        0.84893271 
H     -3.40811262        3.34600001        0.36350461 
H     -5.22026797        4.23065100        0.76572513 
H     -6.26314965        3.58111296        3.44889245 
H     -6.88311287        4.72718197        2.40492059 
H     -6.86378784        1.74961066        1.58006190 
H     -7.34724717        3.02896630        0.42874096 
H     -6.00213346        1.93195136        0.02525983 
14
Iteration: 9
Ca      0.00000000        0.00000000        0.00000000 
O     -4.16116038        1.99356434        2.88690128 
C     -4.26784509        2.66888141        1.89098964 
O     -3.24660424        2.66955533        0.95339867 
C     -5.51666883        3.47817435        1.51456750 
N     -6.00871094        4.18186869        2.69309168 
C     -6.51693908        2.50065463        0.84713939 
H     -3.43834739        3.35980914        0.28714967 
H     -5.24447232        4.25092099        0.76748555 
H     -6.19647967        3.53988894        3.46811780 
H     -6.86776641        4.69612393        2.46943281 
H     -6.88248350        1.76868496        1.58023923 
H     -7.37665691        3.06306760        0.45316509 
H     -6.05849164        1.95234315        0.00690516 
14
Iteration: 10
Ca      0.00000000        0.00000000        0.00000000 
O     -4.12314583        1.96590348        2.81425800 
C     -4.26416340        2.65728793        1.83408436 
O     -3.26951907        2.67539571        0.87275300 
C     -5.51738485        3.48023855        1.50204624 
N     -5.97132115        4.15808216        2.71372689 
C     -6.54422320        2.52071983        0.84519910 
H     -3.47620422        3.36530342        0.21069025 
H     -5.26258908        4.27212827        0.77388068 
H     -6.13469344        3.49104771        3.47209698 
H     -6.84097177        4.66792107        2.53574272 
H     -6.89407904        1.78644433        1.58220567 
H     -7.40935488        3.09468841        0.48464007 
H     -6.11991456        1.97665519       -0.01375750 
14
Iteration: 11
Ca      0.00000000        0.00000000        0.00000000 
O     -4.08741407        1.93885937        2.74481234 
C     -4.25755947        2.64639833        1.77869317 
O     -3.29166179        2.67211336        0.78131954 
C     -5.51973667        3.48158702        1.49562395 
N     -5.93827236        4.13551265        2.73564302 
C     -6.56885402        2.54092628        0.84375081 
H     -3.52531916        3.36751266        0.13250617 
H     -5.27713067        4.28666419        0.77843307 
H     -6.06830206        3.45072994        3.49076063 
H     -6.82105281        4.64242095        2.60121456 
H     -6.90739849        1.79625578        1.57664075 
H     -7.43809482        3.12858422        0.51189202 
H     -6.16730197        2.00867288       -0.03440328 
14
Iteration: 12
Ca      0.00000000        0.00000000        0.00000000 
O     -4.06079380        1.92326507        2.67765717 
C     -4.25607698        2.64056528        1.72778790 
O     -3.31870537        2.66978788        0.69658166 
C     -5.52175689        3.48298361        1.48830650 
N     -5.90148433        4.10791117        2.75026822 
C     -6.59173094        2.56222082        0.84471906 
H     -3.59291662        3.36022939        0.05610664 
H     -5.28191778        4.29936135        0.78880649 
H     -6.01465814        3.40008105        3.48494764 
H     -6.78021404        4.62221175        2.66433759 
H     -6.90655809        1.79733340        1.57030112 
H     -7.47035529        3.15927562        0.55626985 
H     -6.21776517        2.05483226       -0.05870961 
14
Iteration: 13
Ca      0.00000000        0.00000000        0.00000000 
O     -4.03060343        1.90393849        2.60480569 
C     -4.25222664        2.63435807        1.66831294 
O     -3.34115157        2.67506686        0.61543120 
C     -5.52382295        3.48362032        1.48115060 
N     -5.86419312        4.07878169        2.77182315 
C     -6.61584670        2.58274609        0.84769424 
H     -3.63613460        3.35501427       -0.02201733 
H     -5.29992881        4.31529390        0.79054314 
H     -5.95959675        3.35229105        3.48866314 
H     -6.74496519        4.59707875        2.72628424 
H     -6.91437818        1.80260064        1.56499568 
H     -7.50163050        3.19064707        0.59856568 
H     -6.27037732        2.09393829       -0.08005787 
14
Iteration: 14
Ca      0.00000000        0.00000000        0.00000000 
O     -4.01136906        1.89443839        2.52968036 
C     -4.25406073        2.63276656        1.60550481 
O     -3.36817270        2.68819334        0.54484101 
C     -5.52583631        3.48365648        1.47382856 
N     -5.82209357        4.04379070        2.78723050 
C     -6.63638030        2.60284832        0.85491756 
H     -3.68476393        3.34983783       -0.09388249 
H     -5.31962656        4.33081190        0.78963486 
H     -5.90438105        3.29975342        3.48440444 
H     -6.69741485        4.56952603        2.78001073 
H     -6.91648644        1.80022986        1.55385599 
H     -7.52852466        3.21504696        0.65238177 
H     -6.32051766        2.14337191       -0.09738159 
14
Iteration: 15
Ca      0.00000000        0.00000000        0.00000000 
O     -3.98001107        1.87142800        2.45755938 
C     -4.25214284        2.62258812        1.54663200 
O     -3.39736582        2.69286597        0.45981841 
C     -5.52726477        3.48225730        1.47095981 
N     -5.78338991        4.01572254        2.80489319 
C     -6.65758708        2.62207360        0.85846541 
H     -3.74198259        3.36226217       -0.16651928 
H     -5.33808428        4.34371325        0.79621830 
H     -5.84464270        3.25729984        3.49036154 
H     -6.65894736        4.54311599        2.83216613 
H     -6.92415605        1.80251607        1.54265972 
H     -7.55234513        3.24313662        0.69323341 
H     -6.36817684        2.18422426       -0.11376971 
14
Iteration: 16
Ca      0.00000000        0.00000000        0.00000000 
O     -3.95705592        1.85041575        2.38369557 
C     -4.25418048        2.61496006        1.48931406 
O     -3.43268433        2.69706925        0.37983147 
C     -5.52705538        3.47975517        1.46710499 
N     -5.74165514        3.98695594        2.81478815 
C     -6.67838617        2.64084708        0.86327868 
H     -3.79724420        3.37390909       -0.23237282 
H     -5.35242696        4.35336188        0.80611464 
H     -5.78085601        3.21482226        3.49072934 
H     -6.61689681        4.51503600        2.87682664 
H     -6.92769758        1.80168941        1.52899387 
H     -7.57461726        3.26883660        0.74098490 
H     -6.41836480        2.22976653       -0.12811174 
14
Iteration: 17
Ca      0.00000000        0.00000000        0.00000000 
O     -3.94141141        1.82595633        2.30697956 
C     -4.25987230        2.60486712        1.43230396 
O     -3.47525655        2.69551792        0.30136800 
C     -5.52481732        3.47512758        1.46381990 
N     -5.69700985        3.95779325        2.82137644 
C     -6.69867396        2.65765394        0.87023578 
H     -3.84615573        3.38937194       -0.28954477 
H     -5.36446734        4.36040080        0.82018682 
H     -5.72365019        3.17853818        3.48447630 
H     -6.56449289        4.48916038        2.91054040 
H     -6.92940315        1.79803925        1.51383045 
H     -7.59396900        3.29197555        0.79609490 
H     -6.47180045        2.27827963       -0.13969177 
14
Iteration: 18
Ca      0.00000000        0.00000000        0.00000000 
O     -3.93029171        1.80620669        2.22618925 
C     -4.26631925        2.59770036        1.37323119 
O     -3.51599389        2.69119635        0.22319701 
C     -5.52283451        3.47541171        1.45208487 
N     -5.65421301        3.92874372        2.83008515 
C     -6.72020213        2.67504324        0.87552592 
H     -3.88518123        3.39461848       -0.34899822 
H     -5.37554148        4.37460660        0.82828395 
H     -5.66022591        3.13357954        3.48026151 
H     -6.52206053        4.46413819        2.96039826 
H     -6.92979103        1.79894101        1.50543134 
H     -7.61800328        3.31515418        0.85080504 
H     -6.52900153        2.32457571       -0.15479257 
14
Iteration: 19
Ca      0.00000000        0.00000000        0.00000000 
O     -3.91158765        1.77671036        2.14452967 
C     -4.27191319        2.58786413        1.31560640 
O     -3.56071391        2.69011218        0.13912572 
C     -5.51982957        3.47474795        1.44748756 
N     -5.61583512        3.90040334        2.83933694 
C     -6.73675118        2.69158964        0.88520980 
H     -3.93188457        3.40900719       -0.40915878 
H     -5.38582856        4.38798399        0.84074728 
H     -5.61114871        3.09370039        3.47187190 
H     -6.47335825        4.43911180        2.99664574 
H     -6.93277933        1.79965708        1.49642509 
H     -7.63041291        3.33330052        0.90231890 
H     -6.57606983        2.37125524       -0.15774372 
14
Iteration: 20
Ca      0.00000000        0.00000000        0.00000000 
O     -3.90664036        1.75136376        2.06057320 
C     -4.28536139        2.57521608        1.26050005 
O     -3.62112991        2.68596587        0.05786860 
C     -5.51131531        3.47226210        1.44030610 
N     -5.57849542        3.87148149        2.83584004 
C     -6.74430087        2.70402721        0.89782636 
H     -3.98574876        3.43857875       -0.44975822 
H     -5.38374720        4.39643008        0.85373372 
H     -5.56917966        3.05671386        3.45011818 
H     -6.42004216        4.41628649        3.01925499 
H     -6.92500850        1.79532268        1.48539698 
H     -7.63050992        3.34188087        0.96851314 
H     -6.62090796        2.42488505       -0.15468191 
14
Iteration: 21
Ca      0.00000000        0.00000000        0.00000000 
O     -3.88217461        1.73190516        1.98432224 
C     -4.28697840        2.56676891        1.20259164 
O     -3.65816440        2.69489896       -0.02027676 
C     -5.50849249        3.46709694        1.43673161 
N     -5.53814896        3.84133760        2.84321269 
C     -6.76154254        2.72139184        0.90593779 
H     -4.04268552        3.45472302       -0.51097408 
H     -5.39252548        4.40168206        0.86005410 
H     -5.52141311        3.01527071        3.43947700 
H     -6.37086411        4.38884886        3.05730752 
H     -6.92052428        1.79036857        1.47441672 
H     -7.65242156        3.36680330        1.03324275 
H     -6.67696156        2.47495974       -0.17202219 
14
Iteration: 22
Ca      0.00000000        0.00000000        0.00000000 
O     -3.86336614        1.71214310        1.90164800 
C     -4.29118298        2.56271022        1.14321858 
O     -3.69787787        2.70761904       -0.09363150 
C     -5.50533760        3.46496496        1.42862998 
N     -5.49716701        3.81144498        2.84901765 
C     -6.77818218        2.73849330        0.91429111 
H     -4.09141268        3.46974211       -0.56784391 
H     -5.39920357        4.40916191        0.86423586 
H     -5.46420219        2.96907372        3.43117932 
H     -6.32880532        4.35846840        3.10044009 
H     -6.92995157        1.79918864        1.46583968 
H     -7.65836644        3.38073208        1.07276255 
H     -6.72120794        2.51066307       -0.16243582 
14
Iteration: 23
Ca      0.00000000        0.00000000        0.00000000 
O     -3.84906019        1.70025023        1.82342897 
C     -4.29585603        2.56441283        1.09014214 
O     -3.73812572        2.72714549       -0.15346585 
C     -5.49842379        3.45974964        1.42069873 
N     -5.45862488        3.78214503        2.84419185 
C     -6.78841353        2.75134975        0.92690898 
H     -4.13814187        3.48584749       -0.61257923 
H     -5.39815246        4.41141582        0.86707418 
H     -5.41909328        2.92648721        3.41198529 
H     -6.28279115        4.32128761        3.11911424 
H     -6.92804195        1.79830714        1.45677386 
H     -7.65975480        3.39136988        1.13130924 
H     -6.76885454        2.55249782       -0.15725284 
14
Iteration: 24
Ca      0.00000000        0.00000000        0.00000000 
O     -3.83591666        1.69455939        1.74422922 
C     -4.30274152        2.56219532        1.03434506 
O     -3.78540828        2.74164807       -0.22134225 
C     -5.49272917        3.45084426        1.41334844 
N     -5.41409824        3.74857861        2.83922590 
C     -6.79836140        2.76291570        0.93777049 
H     -4.20703354        3.51487140       -0.64967236 
H     -5.39429055        4.41163297        0.87253845 
H     -5.37620520        2.88926538        3.39152621 
H     -6.22785398        4.28792808        3.14249393 
H     -6.93002699        1.79387252        1.43914835 
H     -7.65497299        3.40083267        1.18692865 
H     -6.81305718        2.59726986       -0.14924797 
14
Iteration: 25
Ca      0.00000000        0.00000000        0.00000000 
O     -3.81342917        1.68535371        1.66376701 
C     -4.30806403        2.56314509        0.97963888 
O     -3.83051627        2.76249289       -0.29168277 
C     -5.48825954        3.44548631        1.40691663 
N     -5.37347346        3.71675869        2.83419961 
C     -6.80790428        2.77543435        0.94910774 
H     -4.27687931        3.53688023       -0.69846341 
H     -5.39447451        4.41689882        0.88230163 
H     -5.33325930        2.84365429        3.36605042 
H     -6.17841395        4.25478638        3.16862128 
H     -6.92700268        1.79092247        1.42642388 
H     -7.65698355        3.41295156        1.24982872 
H     -6.85957696        2.64387744       -0.14664424 
14
Iteration: 26
Ca      0.00000000        0.00000000        0.00000000 
O     -3.76403275        1.71173435        1.59667274 
C     -4.30212938        2.58597848        0.93451773 
O     -3.85432278        2.82536997       -0.33441596 
C     -5.48600792        3.43667647        1.40109571 
N     -5.33574648        3.68473292        2.81746329 
C     -6.80861949        2.78148471        0.96137939 
H     -4.37351343        3.55216816       -0.74290029 
H     -5.39066322        4.41545906        0.88780630 
H     -5.30925726        2.78824283        3.31902118 
H     -6.13734164        4.20941008        3.18143128 
H     -6.92522574        1.79269682        1.41777705 
H     -7.64509966        3.41444669        1.30358823 
H     -6.89327100        2.67048867       -0.12855541 
14
Iteration: 27
Ca      0.00000000        0.00000000        0.00000000 
O     -3.75839376        1.69890933        1.51432764 
C     -4.30996960        2.57705449        0.87452269 
O     -3.90053293        2.81958586       -0.41020560 
C     -5.47961951        3.43701432        1.39177866 
N     -5.29249156        3.65163581        2.82685487 
C     -6.82498167        2.79869541        0.97168695 
H     -4.41175307        3.56586954       -0.78910610 
H     -5.39916654        4.43018389        0.89821876 
H     -5.25733398        2.74495600        3.31196669 
H     -6.08306385        4.17523428        3.21274637 
H     -6.92945622        1.79419433        1.40701829 
H     -7.65008443        3.42498717        1.34755381 
H     -6.93993987        2.71844210       -0.12434871 
14
Iteration: 28
Ca      0.00000000        0.00000000        0.00000000 
O     -3.74901585        1.69131885        1.45458787 
C     -4.31478094        2.57748711        0.83876664 
O     -3.93627486        2.82087139       -0.45693170 
C     -5.46966853        3.43523635        1.38244380 
N     -5.26249727        3.62551434        2.81852486 
C     -6.82483863        2.80361817        0.97889497 
H     -4.44531734        3.57926829       -0.80898189 
H     -5.39576646        4.43576713        0.90910269 
H     -5.22775302        2.71868749        3.29414249 
H     -6.04438150        4.15012834        3.22136940 
H     -6.92114965        1.78939333        1.39741402 
H     -7.64102908        3.42223767        1.38449392 
H     -6.96125735        2.74999473       -0.11580320 
14
Iteration: 29
Ca      0.00000000        0.00000000        0.00000000 
O     -3.72561359        1.70138883        1.38631321 
C     -4.31735344        2.58417954        0.79345412 
O     -3.97522825        2.84265827       -0.50882762 
C     -5.46062929        3.43123998        1.37431214 
N     -5.22633083        3.59367770        2.80782286 
C     -6.82661836        2.81034774        0.98795793 
H     -4.50146464        3.59819264       -0.83844974 
H     -5.39742476        4.43894310        0.92196174 
H     -5.19399456        2.67923121        3.26690734 
H     -5.99877427        4.11460013        3.22940223 
H     -6.91851144        1.79075771        1.38740601 
H     -7.62976406        3.42030544        1.42644728 
H     -6.99149135        2.77916229       -0.09976624 
14
Iteration: 30
Ca      0.00000000        0.00000000        0.00000000 
O     -3.69630817        1.71906017        1.30961434 
C     -4.32086558        2.59876850        0.74182754 
O     -4.01926512        2.87881234       -0.56350749 
C     -5.45467909        3.42653382        1.36698318 
N     -5.18663936        3.55861934        2.79604016 
C     -6.82861061        2.81695300        0.99929671 
H     -4.57600389        3.62041821       -0.87554592 
H     -5.40382566        4.44290246        0.93507235 
H     -5.15902249        2.63339115        3.23372962 
H     -5.94702927        4.08097092        3.24424931 
H     -6.91162415        1.78443232        1.37356547 
H     -7.61819207        3.41585670        1.47623889 
H     -7.02693313        2.81505498       -0.08545025 
14
Iteration: 31
Ca      0.00000000        0.00000000        0.00000000 
O     -3.66191737        1.76056077        1.23546911 
C     -4.32125728        2.62837010        0.69183230 
O     -4.06365313        2.92614827       -0.60944431 
C     -5.44896478        3.42282411        1.36160713 
N     -5.15143410        3.52275244        2.78213884 
C     -6.82311341        2.81579695        1.01002004 
H     -4.65340458        3.64494693       -0.90837918 
H     -5.41945893        4.45077601        0.95347661 
H     -5.13003136        2.58745608        3.19914650 
H     -5.89499809        4.04923987        3.24887133 
H     -6.90094627        1.77496506        1.35961379 
H     -7.59835799        3.39835515        1.51688116 
H     -7.05002295        2.83793625       -0.06434224 
14
Iteration: 32
Ca      0.00000000        0.00000000        0.00000000 
O     -3.63785282        1.76932848        1.15281996 
C     -4.32480395        2.63892154        0.63708669 
O     -4.11320555        2.95133363       -0.67655115 
C     -5.44159473        3.41877918        1.35481550 
N     -5.11302984        3.48717332        2.77571248 
C     -6.82783888        2.82301695        1.02005971 
H     -4.71920315        3.67226186       -0.94962148 
H     -5.42344461        4.45871923        0.97026613 
H     -5.08977231        2.54272376        3.17597432 
H     -5.84437277        4.00964314        3.26350947 
H     -6.89998213        1.77685203        1.34735799 
H     -7.59162984        3.39833628        1.56823081 
H     -7.08523506        2.87260110       -0.04890406 
14
Iteration: 33
Ca      0.00000000        0.00000000        0.00000000 
O     -3.62107685        1.78810782        1.08991624 
C     -4.32736311        2.65263940        0.59605665 
O     -4.15269276        2.97554868       -0.71984019 
C     -5.43306209        3.41508236        1.34771388 
N     -5.07982481        3.45862696        2.76515550 
C     -6.82637944        2.82329720        1.02777413 
H     -4.76982191        3.69170469       -0.97398215 
H     -5.42270770        4.45969866        0.98411190 
H     -5.05741194        2.51101974        3.15397756 
H     -5.79977977        3.98408484        3.27347042 
H     -6.88857483        1.76589301        1.33327893 
H     -7.57965643        3.38440956        1.60186496 
H     -7.10585712        2.90030018       -0.03792011 
14
Iteration: 34
Ca      0.00000000        0.00000000        0.00000000 
O     -3.61491684        1.79513960        1.04641895 
C     -4.32814333        2.66197887        0.57302465 
O     -4.18216814        2.98679293       -0.74429211 
C     -5.42284084        3.41231219        1.34263719 
N     -5.05909531        3.44482497        2.75561205 
C     -6.82065119        2.81649591        1.02886826 
H     -4.79315717        3.71211386       -0.97869419 
H     -5.41163476        4.45723758        0.99698138 
H     -5.03319193        2.50155363        3.14573728 
H     -5.77209873        3.96795361        3.27324212 
H     -6.87469343        1.75783573        1.32324893 
H     -7.57024239        3.36420827        1.61389453 
H     -7.10576394        2.90734726       -0.02916029 
14
Iteration: 35
Ca      0.00000000        0.00000000        0.00000000 
O     -3.59089769        1.81512964        0.97925280 
C     -4.32957245        2.67942642        0.53135029 
O     -4.22110778        3.01714594       -0.78392782 
C     -5.41494111        3.40986639        1.33694052 
N     -5.02697944        3.41827100        2.74365727 
C     -6.81468662        2.81598343        1.03668869 
H     -4.85429633        3.73269848       -1.00147721 
H     -5.41665146        4.46633844        1.01183316 
H     -5.00590544        2.46426906        3.11540313 
H     -5.72705491        3.94018520        3.27813243 
H     -6.86084782        1.75078052        1.31075006 
H     -7.55503769        3.34914436        1.64865958 
H     -7.12233737        2.92656651       -0.01325755 
14
Iteration: 36
Ca      0.00000000        0.00000000        0.00000000 
O     -3.57843080        1.82772212        0.93951911 
C     -4.32872021        2.68736468        0.50744287 
O     -4.24637785        3.03123694       -0.80834957 
C     -5.40578325        3.40668004        1.33374475 
N     -5.00387517        3.40170558        2.73697640 
C     -6.80632071        2.81275729        1.03846560 
H     -4.88657262        3.74317203       -1.01336101 
H     -5.41353768        4.46813387        1.01985327 
H     -4.98542906        2.44348928        3.09930043 
H     -5.69535569        3.92221238        3.28305132 
H     -6.84667883        1.74461272        1.29783824 
H     -7.54338405        3.33641006        1.66796769 
H     -7.12643154        2.93573217       -0.00769003 
14
Iteration: 37
Ca      0.00000000        0.00000000        0.00000000 
O     -3.56564209        1.83812427        0.91074776 
C     -4.32640898        2.69353006        0.49221559 
O     -4.26632165        3.04387125       -0.82367311 
C     -5.39723448        3.40428986        1.33412683 
N     -4.98529502        3.39242112        2.73333634 
C     -6.79624633        2.80818525        1.03940057 
H     -4.91366173        3.75174929       -1.01854081 
H     -5.40864574        4.46487008        1.02192907 
H     -4.96961506        2.43253521        3.09002234 
H     -5.67034707        3.90875604        3.28943992 
H     -6.83233043        1.73729844        1.28371118 
H     -7.53097072        3.32146131        1.67238959 
H     -7.12053745        2.93742275       -0.00401757 
14
Iteration: 38
Ca      0.00000000        0.00000000        0.00000000 
O     -3.55394189        1.84524885        0.87505734 
C     -4.32578100        2.69995978        0.47333700 
O     -4.28872349        3.05416034       -0.84060273 
C     -5.38830428        3.40293209        1.33058964 
N     -4.96540205        3.38125230        2.72699379 