14
Iteration: 0
Ca      0.0   0.0   0.0 
O     -2.4420   -4.7874    4.2938 
C     -2.3238   -4.1916    3.1900 
O     -1.0916   -4.2015    2.5418 
C     -3.5154   -3.5219    2.5598 
N     -4.2378   -2.7309    3.5589 
C     -4.4317   -4.5654    1.9102 
H     -0.9654   -3.7549    1.6414 
H     -3.1556   -2.8330    1.7639 
H     -4.7184   -3.3710    4.2333 
H     -4.9830   -2.1808    3.0725 
H     -4.8123   -5.2824    2.6692 
H     -5.2963   -4.0632    1.4267 
H     -3.8750   -5.1289    1.1309 
14
Iteration: 1
Ca      0.00000000        0.00000000        0.00000000 
O     -2.42861295       -4.76350944        4.27921632 
C     -2.33517584       -4.19730303        3.20102434 
O     -1.11593312       -4.20501373        2.56006744 
C     -3.52484313       -3.51730778        2.54542726 
N     -4.21884082       -2.71017248        3.55213992 
C     -4.41633838       -4.58246340        1.88380685 
H     -1.07381374       -3.77105934        1.67022860 
H     -3.16645800       -2.82256536        1.75882539 
H     -4.65050047       -3.32963413        4.25889729 
H     -4.98312214       -2.18957480        3.09647043 
H     -4.78841738       -5.28605942        2.64725625 
H     -5.28107283       -4.08944191        1.40978151 
H     -3.87776318       -5.15840884        1.11156153 
14
Iteration: 2
Ca      0.00000000        0.00000000        0.00000000 
O     -2.42839404       -4.74625799        4.28033106 
C     -2.34058618       -4.19221875        3.22302051 
O     -1.13931787       -4.21198875        2.56655842 
C     -3.52673165       -3.51204381        2.52620306 
N     -4.20147529       -2.69320542        3.53363662 
C     -4.40694044       -4.59435884        1.86397609 
H     -1.19991062       -3.78821930        1.68367740 
H     -3.16436596       -2.81636184        1.74566824 
H     -4.56305150       -3.28784488        4.29566642 
H     -4.99655583       -2.20451841        3.11419023 
H     -4.76978665       -5.29389357        2.62785141 
H     -5.27413797       -4.12128510        1.38577573 
H     -3.86667975       -5.17371448        1.10280659 
14
Iteration: 3
Ca      0.00000000        0.00000000        0.00000000 
O     -2.42343916       -4.71054023        4.31008318 
C     -2.34791380       -4.20782932        3.22248392 
O     -1.15036284       -4.21071173        2.55790996 
C     -3.52873953       -3.51293430        2.51540886 
N     -4.19268586       -2.68387187        3.51877705 
C     -4.40618668       -4.60014811        1.85457023 
H     -1.27326078       -3.79980885        1.67536718 
H     -3.15862898       -2.82315390        1.73282599 
H     -4.50072677       -3.26148796        4.31969815 
H     -5.01535305       -2.22031951        3.12328010 
H     -4.76493401       -5.29949550        2.61938414 
H     -5.27417774       -4.13679795        1.36983993 
H     -3.85727330       -5.17818300        1.09902244 
14
Iteration: 4
Ca      0.00000000        0.00000000        0.00000000 
O     -2.42185426       -4.67071018        4.34116125 
C     -2.34530835       -4.18559548        3.23886421 
O     -1.17139154       -4.23388244        2.52414528 
C     -3.53125352       -3.51018462        2.50873584 
N     -4.18979750       -2.66983935        3.49976218 
C     -4.40246131       -4.60541965        1.84897555 
H     -1.35740046       -3.83317361        1.64966763 
H     -3.15084514       -2.83325926        1.71731993 
H     -4.42296324       -3.22618484        4.34509811 
H     -5.05152712       -2.24947513        3.13012471 
H     -4.75916841       -5.30631653        2.61409224 
H     -5.27236303       -4.15697022        1.35107076 
H     -3.83748560       -5.17940621        1.09987056 
14
Iteration: 5
Ca      0.00000000        0.00000000        0.00000000 
O     -2.41574482       -4.64123178        4.35198983 
C     -2.34426371       -4.17945481        3.23544382 
O     -1.17789060       -4.24892580        2.50504178 
C     -3.53267201       -3.50809212        2.51211768 
N     -4.19441810       -2.66750881        3.49759369 
C     -4.40125863       -4.60493238        1.85348899 
H     -1.36852115       -3.86243530        1.63174587 
H     -3.14691250       -2.83854920        1.71413530 
H     -4.41272603       -3.21595263        4.33711533 
H     -5.06070458       -2.26028694        3.13307029 
H     -4.76090337       -5.30775646        2.61730465 
H     -5.26964451       -4.15813753        1.34923894 
H     -3.82884669       -5.17611383        1.10555361 
14
Iteration: 6
Ca      0.00000000        0.00000000        0.00000000 
O     -2.39994954       -4.58322856        4.36203715 
C     -2.34267303       -4.16141386        3.22772181 
O     -1.19061262       -4.26711981        2.47401795 
C     -3.53680435       -3.50273884        2.51295490 
N     -4.20618543       -2.65734548        3.48389432 
C     -4.39767148       -4.60740151        1.86005661 
H     -1.40066996       -3.92558922        1.58728083 
H     -3.14769002       -2.84604221        1.70218941 
H     -4.36601051       -3.18331020        4.35228235 
H     -5.10016905       -2.29702614        3.13221462 
H     -4.76276412       -5.30954943        2.62380047 
H     -5.26257950       -4.16358445        1.34523992 
H     -3.81586353       -5.17732383        1.11616933 
14
Iteration: 7
Ca      0.00000000        0.00000000        0.00000000 
O     -2.35425225       -4.45427662        4.37303787 
C     -2.33781787       -4.11234651        3.21025744 
O     -1.21663777       -4.29475802        2.41797873 
C     -3.54608978       -3.49019851        2.51090503 
N     -4.23496210       -2.64363362        3.45884058 
C     -4.39039998       -4.61441346        1.87357371 
H     -1.46209640       -4.08367848        1.48084036 
H     -3.16278863       -2.85158311        1.67785910 
H     -4.28158552       -3.11509072        4.37826263 
H     -5.17789410       -2.38094073        3.13581523 
H     -4.76562491       -5.30805911        2.64228427 
H     -5.24850966       -4.17695397        1.34051357 
H     -3.79849346       -5.18988089        1.14053748 
14
Iteration: 8
Ca      0.00000000        0.00000000        0.00000000 
O     -2.34176997       -4.43635646        4.35398163 
C     -2.33807514       -4.10240719        3.19662395 
O     -1.22157958       -4.30893606        2.41127814 
C     -3.54797759       -3.48525517        2.50491822 
N     -4.24170601       -2.64679141        3.45799193 
C     -4.39084543       -4.61486493        1.87582470 
H     -1.43224349       -4.09898508        1.48312103 
H     -3.17601731       -2.84168644        1.67316600 
H     -4.28491595       -3.10493652        4.37592984 
H     -5.17989950       -2.39169852        3.14141995 
H     -4.76461546       -5.30117192        2.65105264 
H     -5.24922153       -4.17841276        1.34482815 
H     -3.80608078       -5.19865268        1.14600356 
14
Iteration: 9
Ca      0.00000000        0.00000000        0.00000000 
O     -2.28951666       -4.31196683        4.36930638 
C     -2.33540976       -4.07016812        3.17616412 
O     -1.24701579       -4.34260614        2.36995837 
C     -3.55491261       -3.47684702        2.48159246 
N     -4.24934985       -2.64243688        3.43730162 
C     -4.39263546       -4.62396106        1.87321020 
H     -1.46949535       -4.19315774        1.43571405 
H     -3.20102227       -2.83366763        1.64379310 
H     -4.21829241       -3.05408708        4.38411667 
H     -5.21732930       -2.44866613        3.16083127 
H     -4.75832081       -5.29385556        2.66486894 
H     -5.25482814       -4.20386965        1.33744080 
H     -3.81144629       -5.22292938        1.15533848 
14
Iteration: 10
Ca      0.00000000        0.00000000        0.00000000 
O     -2.23174476       -4.20483692        4.36461722 
C     -2.32322106       -4.03098662        3.15999080 
O     -1.26313274       -4.35093197        2.34547496 
C     -3.55850826       -3.46652410        2.45914186 
N     -4.25765762       -2.63999703        3.42147289 
C     -4.39257624       -4.63194810        1.87083699 
H     -1.52576539       -4.28860744        1.38534713 
H     -3.22730971       -2.81835158        1.61894706 
H     -4.17265229       -3.01249917        4.36722778 
H     -5.24211606       -2.49674146        3.18621624 
H     -4.74485750       -5.28317224        2.68233581 
H     -5.26424859       -4.23489177        1.33356460 
H     -3.81750768       -5.24831309        1.16492657 
14
Iteration: 11
Ca      0.00000000        0.00000000        0.00000000 
O     -2.22326890       -4.19210682        4.34463514 
C     -2.31550420       -4.01836049        3.15726982 
O     -1.27042369       -4.36138365        2.33744843 
C     -3.55801596       -3.45960565        2.44488947 
N     -4.25680858       -2.62892028        3.40766402 
C     -4.39182191       -4.63475856        1.86649339 
H     -1.55596700       -4.27374675        1.40291198 
H     -3.23317042       -2.81137951        1.60377292 
H     -4.12949166       -2.98848897        4.36639643 
H     -5.26145886       -2.51988609        3.19590774 
H     -4.73140771       -5.27800706        2.68848109 
H     -5.27306972       -4.25538897        1.33064727 
H     -3.81807370       -5.25767359        1.16536868 
14
Iteration: 12
Ca      0.00000000        0.00000000        0.00000000 
O     -2.19930464       -4.14235178        4.34399532 
C     -2.30668486       -4.00845437        3.14600239 
O     -1.27975042       -4.38981116        2.30794513 
C     -3.55974140       -3.45927125        2.44242614 
N     -4.26379229       -2.62410169        3.39910275 
C     -4.39112837       -4.63903047        1.87236166 
H     -1.57097808       -4.29212857        1.38759154 
H     -3.23580078       -2.81855808        1.59336431 
H     -4.12638331       -2.96885816        4.35359963 
H     -5.25406443       -2.52241665        3.19391837 
H     -4.72799501       -5.27928540        2.69752751 
H     -5.27374816       -4.26303583        1.33723231 
H     -3.81675907       -5.26223917        1.17127153 
14
Iteration: 13
Ca      0.00000000        0.00000000        0.00000000 
O     -2.14382419       -4.01138103        4.32757908 
C     -2.29607709       -3.96803371        3.11239972 
O     -1.30609533       -4.42437096        2.25363420 
C     -3.57036913       -3.45009911        2.42899870 
N     -4.28477759       -2.60971425        3.37255701 
C     -4.39096124       -4.65031658        1.88768669 
H     -1.61976967       -4.39943236        1.32497203 
H     -3.25570232       -2.82658412        1.55927815 
H     -4.05926908       -2.90011264        4.35157816 
H     -5.30215609       -2.59321243        3.20466529 
H     -4.72307752       -5.27916346        2.72490525 
H     -5.27533220       -4.28620589        1.34784805 
H     -3.81472156       -5.28032790        1.19291829 
14
Iteration: 14
Ca      0.00000000        0.00000000        0.00000000 
O     -2.18195102       -4.09939083        4.32284456 
C     -2.30418939       -4.00287792        3.12282140 
O     -1.28407128       -4.37992032        2.30051664 
C     -3.56701515       -3.46168299        2.44396929 
N     -4.27194848       -2.61876164        3.39157912 
C     -4.39376787       -4.64331097        1.88648569 
H     -1.58507885       -4.32980107        1.36451081 
H     -3.23748424       -2.83550368        1.58200091 
H     -4.11196539       -2.94483212        4.34684238 
H     -5.26998729       -2.55505906        3.19446295 
H     -4.73284467       -5.28713210        2.70852157 
H     -5.27287171       -4.26013353        1.35381444 
H     -3.81712666       -5.25949758        1.17979336 
14
Iteration: 15
Ca      0.00000000        0.00000000        0.00000000 
O     -2.16219042       -4.05392938        4.31866534 
C     -2.29917394       -3.98423978        3.11874500 
O     -1.29682064       -4.39793845        2.28150167 
C     -3.57022205       -3.46017384        2.43530349 
N     -4.27389777       -2.61451827        3.38093405 
C     -4.39510254       -4.64894557        1.88948195 
H     -1.61098191       -4.35724380        1.35278608 
H     -3.24793541       -2.83830937        1.56720085 
H     -4.08781449       -2.92180573        4.33937206 
H     -5.28096104       -2.57834583        3.20375099 
H     -4.72629412       -5.28951098        2.71762244 
H     -5.27995931       -4.27562980        1.35732928 
H     -3.82005698       -5.26762180        1.18379874 
14
Iteration: 16
Ca      0.00000000        0.00000000        0.00000000 
O     -2.13802653       -4.00431984        4.31253049 
C     -2.29504776       -3.96975569        3.11163464 
O     -1.30825566       -4.41090846        2.26817868 
C     -3.57474544       -3.46284684        2.42572620 
N     -4.27712111       -2.61281807        3.36788453 
C     -4.39872752       -4.65577690        1.89066055 
H     -1.63545344       -4.38260169        1.34728581 
H     -3.25960416       -2.84495912        1.55254091 
H     -4.06307365       -2.89546164        4.33488379 
H     -5.28618356       -2.59956773        3.21509933 
H     -4.72072992       -5.29510754        2.72360396 
H     -5.28997502       -4.29028480        1.36222382 
H     -3.82701037       -5.27509659        1.18315764 
14
Iteration: 17
Ca      0.00000000        0.00000000        0.00000000 
O     -2.11510934       -3.95530014        4.30134412 
C     -2.29033593       -3.95381451        3.10246898 
O     -1.31816179       -4.42343937        2.25376433 
C     -3.57863430       -3.46270014        2.42043653 
N     -4.28174364       -2.60870546        3.35773288 
C     -4.40052772       -4.66047077        1.89623825 
H     -1.65554669       -4.41501010        1.33638088 
H     -3.26943647       -2.85147937        1.53995513 
H     -4.04550714       -2.87240346        4.32259217 
H     -5.29697872       -2.62601499        3.22534204 
H     -4.71492862       -5.30113012        2.73135669 
H     -5.29737983       -4.30021682        1.37267071 
H     -3.83310892       -5.27894341        1.18424899 
14
Iteration: 18
Ca      0.00000000        0.00000000        0.00000000 
O     -2.09227159       -3.90660460        4.28337180 
C     -2.28669539       -3.93904465        3.09226482 
O     -1.32587245       -4.43158652        2.24464563 
C     -3.58310341       -3.46486933        2.41613541 
N     -4.28697134       -2.60468977        3.34628046 
C     -4.40307293       -4.66587091        1.90168267 
H     -1.67322780       -4.44935370        1.33070800 
H     -3.27916646       -2.86178340        1.52827509 
H     -4.03142994       -2.84554146        4.30910184 
H     -5.30136799       -2.65018666        3.23745802 
H     -4.70692757       -5.31256440        2.73647895 
H     -5.30734496       -4.30830850        1.38821246 
H     -3.84286386       -5.28005315        1.17947812 
14
Iteration: 19
Ca      0.00000000        0.00000000        0.00000000 
O     -2.06799336       -3.85433090        4.26817218 
C     -2.28480632       -3.92934977        3.07875014 
O     -1.33264276       -4.43601557        2.23777305 
C     -3.58796566       -3.46733823        2.40905491 
N     -4.29044893       -2.60159373        3.33589868 
C     -4.40765755       -4.67204791        1.90457054 
H     -1.69206552       -4.48025149        1.32823123 
H     -3.28844010       -2.87044918        1.51576215 
H     -4.01299358       -2.81915580        4.29840463 
H     -5.30717179       -2.67703059        3.25023661 
H     -4.69973061       -5.32187396        2.74149029 
H     -5.31862488       -4.31731504        1.40142257 
H     -3.85361355       -5.28281994        1.17441232 
14
Iteration: 20
Ca      0.00000000        0.00000000        0.00000000 
O     -2.04842808       -3.80703473        4.25071640 
C     -2.28223414       -3.91582963        3.06723392 
O     -1.34011822       -4.44599726        2.22637261 
C     -3.59226203       -3.46738265        2.40366654 
N     -4.29827469       -2.59800461        3.32527752 
C     -4.40981094       -4.67831009        1.90910244 
H     -1.71085612       -4.51886671        1.32021885 
H     -3.29705902       -2.87685077        1.50412023 
H     -3.99640445       -2.79072903        4.29049538 
H     -5.31253814       -2.69975548        3.25984816 
H     -4.69014386       -5.33043702        2.74858097 
H     -5.32714801       -4.32707693        1.41548217 
H     -3.86046721       -5.28526485        1.17200626 
14
Iteration: 21
Ca      0.00000000        0.00000000        0.00000000 
O     -2.02920734       -3.75858208        4.22634982 
C     -2.28080068       -3.90431510        3.05318240 
O     -1.34546945       -4.45612208        2.21710400 
C     -3.59597805       -3.46663854        2.39746274 
N     -4.30724725       -2.59574554        3.31635053 
C     -4.41290421       -4.68455696        1.91258289 
H     -1.72554094       -4.55482354        1.32124433 
H     -3.30647829       -2.88054978        1.49352173 
H     -3.98536905       -2.76449100        4.27772870 
H     -5.31485866       -2.72290723        3.27194453 
H     -4.67466180       -5.33989778        2.75553479 
H     -5.33948515       -4.33688335        1.43531721 
H     -3.87111109       -5.28527647        1.16501887 
14
Iteration: 22
Ca      0.00000000        0.00000000        0.00000000 
O     -2.00743116       -3.70926206        4.20912888 
C     -2.27703335       -3.88870647        3.04279605 
O     -1.35334890       -4.46449592        2.20633566 
C     -3.60009691       -3.46629673        2.39022773 
N     -4.31272417       -2.59401917        3.30774989 
C     -4.41538991       -4.68965480        1.91547019 
H     -1.74656312       -4.58896451        1.31782474 
H     -3.31806399       -2.88351571        1.48156719 
H     -3.96942880       -2.74123675        4.26454432 
H     -5.32189354       -2.75022454        3.28534291 
H     -4.66311565       -5.34526506        2.76240881 
H     -5.35000449       -4.34872383        1.44813798 
H     -3.87920950       -5.28804537        1.16216884 
14
Iteration: 23
Ca      0.00000000        0.00000000        0.00000000 
O     -1.98696412       -3.66153463        4.18754491 
C     -2.27327451       -3.87234340        3.03124186 
O     -1.35998373       -4.46749481        2.19699592 
C     -3.60532465       -3.46681907        2.38275460 
N     -4.31894883       -2.59466729        3.30020458 
C     -4.41777597       -4.69501970        1.91793389 
H     -1.76807206       -4.62330273        1.31720211 
H     -3.33161619       -2.88577234        1.47003908 
H     -3.95470049       -2.71770656        4.25221429 
H     -5.32617462       -2.77654701        3.30001955 
H     -4.65022561       -5.35057828        2.76835888 
H     -5.36055106       -4.36141413        1.46152432 
H     -3.88767794       -5.29044343        1.15844381 
14
Iteration: 24
Ca      0.00000000        0.00000000        0.00000000 
O     -1.96667242       -3.61388484        4.16329075 
C     -2.26917383       -3.85618536        3.01711845 
O     -1.36675441       -4.46988822        2.18543466 
C     -3.61167730       -3.46808784        2.37564836 
N     -4.32613979       -2.59757944        3.29361575 
C     -4.41984404       -4.70066244        1.92159251 
H     -1.78734908       -4.65324851        1.31852853 
H     -3.34720700       -2.88809017        1.45873850 
H     -3.94243211       -2.69543901        4.24004305 
H     -5.32838455       -2.79981308        3.31458845 
H     -4.63822386       -5.35574784        2.77482514 
H     -5.37000019       -4.37488335        1.47509774 
H     -3.89625230       -5.29379622        1.15618218 
14
Iteration: 25
Ca      0.00000000        0.00000000        0.00000000 
O     -1.95080570       -3.57053621        4.13156685 
C     -2.26567621       -3.83940089        2.99894875 
O     -1.37294061       -4.46521564        2.17260737 
C     -3.61966666       -3.46833520        2.36963632 
N     -4.33544030       -2.60380891        3.29003489 
C     -4.41965763       -4.70607712        1.92648295 
H     -1.80780510       -4.68231418        1.32254357 
H     -3.36511387       -2.88775657        1.44950043 
H     -3.93188621       -2.67502063        4.22830036 
H     -5.33079076       -2.82082634        3.33173202 
H     -4.62587943       -5.36055090        2.78158553 
H     -5.37557573       -4.38947333        1.48733389 
H     -3.90142291       -5.29731290        1.15639691 
14
Iteration: 26
Ca      0.00000000        0.00000000        0.00000000 
O     -1.93056587       -3.52049345        4.10650366 
C     -2.26340058       -3.82566068        2.98177512 
O     -1.38110596       -4.46974120        2.15865590 
C     -3.62642131       -3.46863258        2.36522943 
N     -4.34553219       -2.60608512        3.28381328 
C     -4.42009216       -4.71238954        1.93121475 
H     -1.82772354       -4.71457058        1.32220385 
H     -3.37871652       -2.89130471        1.44086196 
H     -3.91985705       -2.65065626        4.21809880 
H     -5.33416945       -2.84073990        3.34706591 
H     -4.61594857       -5.36973325        2.78752084 
H     -5.38132388       -4.40121060        1.49957976 
H     -3.90589012       -5.29994802        1.15476245 
14
Iteration: 27
Ca      0.00000000        0.00000000        0.00000000 
O     -1.91320040       -3.47718728        4.07907599 
C     -2.26044076       -3.80829958        2.96640871 
O     -1.38880410       -4.46952706        2.14475879 
C     -3.63319170       -3.46785955        2.35912908 
N     -4.35259382       -2.60772380        3.27907124 
C     -4.42037289       -4.71899182        1.93564249 
H     -1.84961554       -4.74298914        1.32318928 
H     -3.39570393       -2.89209478        1.43040154 
H     -3.90806895       -2.62858411        4.20526920 
H     -5.33808977       -2.86188247        3.36347340 
H     -4.60330009       -5.37683406        2.79520886 
H     -5.38844953       -4.41670548        1.51165522 
H     -3.91005970       -5.30393845        1.15456103 
14
Iteration: 28
Ca      0.00000000        0.00000000        0.00000000 
O     -1.89746224       -3.44081633        4.04944633 
C     -2.25915425       -3.78905547        2.95035437 
O     -1.40002745       -4.46738759        2.12393403 
C     -3.64082773       -3.46595456        2.35537001 
N     -4.35695963       -2.60823967        3.27895788 
C     -4.41803674       -4.72851588        1.94044495 
H     -1.87689540       -4.76255373        1.32572578 
H     -3.41789378       -2.89208044        1.42211484 
H     -3.90172114       -2.60829651        4.19013890 
H     -5.33848673       -2.87206425        3.38153281 
H     -4.59140808       -5.38790799        2.80382299 
H     -5.39139322       -4.43739545        1.51893335 
H     -3.90569764       -5.31066021        1.15830565 
14
Iteration: 29
Ca      0.00000000        0.00000000        0.00000000 
O     -1.87761977       -3.39696072        4.02067405 
C     -2.25693560       -3.77455331        2.93361558 
O     -1.40685730       -4.46354485        2.11119289 
C     -3.64766583       -3.46767069        2.35029714 
N     -4.36542542       -2.61128007        3.27334149 
C     -4.41924685       -4.73585760        1.94458753 
H     -1.89916123       -4.79052248        1.32876875 
H     -3.43531723       -2.89604329        1.41280816 
H     -3.88989073       -2.58313262        4.17961936 
H     -5.33966944       -2.89069486        3.39718772 
H     -4.58052565       -5.39637737        2.80914559 
H     -5.39820882       -4.45210326        1.53117385 
H     -3.91013771       -5.31409715        1.15716711 
14
Iteration: 30
Ca      0.00000000        0.00000000        0.00000000 
O     -1.86050498       -3.35767115        3.98767201 
C     -2.25543745       -3.76025116        2.91408753 
O     -1.41388606       -4.46049445        2.09511937 
C     -3.65416911       -3.46826901        2.34584455 
N     -4.37402151       -2.61361800        3.26869430 
C     -4.41993874       -4.74323303        1.95061545 
H     -1.91693310       -4.81411306        1.33251261 
H     -3.45449261       -2.90029948        1.40322065 
H     -3.87947536       -2.55842583        4.16884770 
H     -5.34261850       -2.90775195        3.41283261 
H     -4.57068741       -5.40372951        2.81662449 
H     -5.40339108       -4.46738283        1.54354815 
H     -3.91296536       -5.31868932        1.15942646 
14
Iteration: 31
Ca      0.00000000        0.00000000        0.00000000 
O     -1.84483822       -3.31924946        3.95361430 
C     -2.25385975       -3.74546748        2.89376210 
O     -1.41904158       -4.45448302        2.07821670 
C     -3.66036943       -3.46907663        2.34127180 
N     -4.38140098       -2.61730097        3.26613501 
C     -4.42094512       -4.75070323        1.95725085 
H     -1.93332480       -4.83985552        1.33482448 
H     -3.47518860       -2.90465576        1.39392811 
H     -3.87492816       -2.53846614        4.15594806 
H     -5.34091547       -2.91871226        3.42767829 
H     -4.56063837       -5.40953814        2.82535144 
H     -5.40872402       -4.48340641        1.55645682 
H     -3.91626010       -5.32431658        1.16317352 
14
Iteration: 32
Ca      0.00000000        0.00000000        0.00000000 
O     -1.83376378       -3.28499812        3.91727774 
C     -2.25321214       -3.73193686        2.87154425 
O     -1.42295232       -4.44988238        2.05998305 
C     -3.66651381       -3.47030132        2.33505808 
N     -4.38583636       -2.61914440        3.26297642 
C     -4.42346492       -4.75862664        1.96512909 
H     -1.94198326       -4.85700241        1.33814632 
H     -3.49670154       -2.91141005        1.38262409 
H     -3.87072848       -2.52046986        4.14275024 
H     -5.33835245       -2.92801016        3.44072118 
H     -4.55059259       -5.41339700        2.83758139 
H     -5.41600581       -4.49962684        1.57185939 
H     -3.92252999       -5.33244051        1.16874503 
14
Iteration: 33
Ca      0.00000000        0.00000000        0.00000000 
O     -1.82114347       -3.24328885        3.88671642 
C     -2.25133008       -3.71507332        2.85418943 
O     -1.42922352       -4.45122425        2.04341418 
C     -3.67350409       -3.47042045        2.32778343 
N     -4.38956293       -2.61983733        3.25891970 
C     -4.42482450       -4.76594331        1.97081011 
H     -1.95709351       -4.87940137        1.34034569 
H     -3.51562140       -2.91484116        1.37162094 
H     -3.86335769       -2.50322940        4.12717581 
H     -5.33738196       -2.94370687        3.45559671 
H     -4.53748456       -5.41840601        2.84834945 
H     -5.42418363       -4.51508463        1.58705395 
H     -3.92933474       -5.33926079        1.17057749 
14
Iteration: 34
Ca      0.00000000        0.00000000        0.00000000 
O     -1.81017530       -3.20769733        3.85151079 
C     -2.25019548       -3.70065977        2.83423284 
O     -1.43257081       -4.44432849        2.02771755 
C     -3.68051179       -3.47218904        2.32052670 
N     -4.39401061       -2.62194430        3.25427317 
C     -4.42731432       -4.77386920        1.97758715 
H     -1.96905616       -4.89705669        1.34441353 
H     -3.53636830       -2.92039030        1.36022767 
H     -3.85568784       -2.48547830        4.11383789 
H     -5.33480877       -2.95690879        3.46828552 
H     -4.52603717       -5.42233956        2.85958933 
H     -5.43245026       -4.53072417        1.60374338 
H     -3.93762063       -5.34746521        1.17407846 
14
Iteration: 35
Ca      0.00000000        0.00000000        0.00000000 
O     -1.80451504       -3.17356596        3.81389680 
C     -2.24967104       -3.68767529        2.81400399 
O     -1.43215310       -4.43447540        2.01242845 
C     -3.68836325       -3.47548183        2.31194010 
N     -4.39787712       -2.62434291        3.24788800 
C     -4.43096738       -4.78120774        1.98619648 
H     -1.97289844       -4.90672153        1.34816199 
H     -3.55675809       -2.92744769        1.34904771 
H     -3.84952898       -2.47703464        4.09887788 
H     -5.32901070       -2.96978753        3.47637009 
H     -4.51486451       -5.42240176        2.87255523 
H     -5.44172540       -4.54278843        1.62705527 
H     -3.95231759       -5.35834437        1.17914830 
14
Iteration: 36
Ca      0.00000000        0.00000000        0.00000000 
O     -1.79230608       -3.13371768        3.77848033 
C     -2.24929951       -3.67442590        2.79316204 
O     -1.43587591       -4.42918155        1.99597062 
C     -3.69535520       -3.47683147        2.30584205 
N     -4.40473391       -2.62676614        3.24325567 
C     -4.43329556       -4.78828141        1.99403184 
H     -1.98156624       -4.92362438        1.35072929 
H     -3.57604129       -2.93318343        1.33844858 
H     -3.84424834       -2.46293851        4.08521365 
H     -5.32698997       -2.98307386        3.48924166 
H     -4.50371130       -5.42720142        2.88338858 
H     -5.44974651       -4.55684917        1.64536332 
H     -3.96121938       -5.36523231        1.18271521 
14
Iteration: 37
Ca      0.00000000        0.00000000        0.00000000 
O     -1.78354906       -3.09542142        3.74307656 
C     -2.24994715       -3.65986928        2.77347517 
O     -1.44065163       -4.42521625        1.97820002 
C     -3.70268131       -3.47707801        2.29952655 
N     -4.41073618       -2.62681622        3.23849839 
C     -4.43494392       -4.79560626        2.00241546 
H     -1.98939927       -4.93863163        1.35035577 
H     -3.59457552       -2.93844347        1.32729796 
H     -3.84030442       -2.45139761        4.07139506 
H     -5.32445733       -2.99490800        3.50193426 
H     -4.49037750       -5.43261322        2.89571544 
H     -5.45784321       -4.57203725        1.66485911 
H     -3.96947509       -5.37250551        1.18718756 
14
Iteration: 38
Ca      0.00000000        0.00000000        0.00000000 
O     -1.77653487       -3.05893955        3.70636198 
C     -2.25264566       -3.64592832        2.75407336 
O     -1.44672740       -4.41876371        1.95881545 
C     -3.71078544       -3.47788027        2.29470045 
N     -4.41629313       -2.62391040        3.23370089 