14
Iteration: 0
Ca      0.0   0.0   0.0 
O      4.5580    2.2126   -1.7062 
C      4.6762    2.8084   -2.8100 
O      5.9084    2.7985   -3.4582 
C      3.4846    3.4781   -3.4402 
N      2.7622    4.2691   -2.4411 
C      2.5683    2.4346   -4.0898 
H      6.0346    3.2451   -4.3586 
H      3.8444    4.1670   -4.2361 
H      2.2816    3.6290   -1.7667 
H      2.0170    4.8192   -2.9275 
H      2.1877    1.7176   -3.3308 
H      1.7037    2.9368   -4.5733 
H      3.1250    1.8711   -4.8691 
14
Iteration: 1
Ca      0.00000000        0.00000000        0.00000000 
O      4.53729556        2.20331196       -1.72936181 
C      4.65757164        2.79682109       -2.79631982 
O      5.87189602        2.76956148       -3.43116331 
C      3.47593453        3.48584812       -3.45512574 
N      2.78105586        4.29165556       -2.44613821 
C      2.58490713        2.42365186       -4.12234202 
H      5.94493215        3.25758101       -4.29146585 
H      3.83802050        4.18072795       -4.23568648 
H      2.33546272        3.66867264       -1.75351179 
H      2.02990149        4.82668913       -2.90596258 
H      2.21405873        1.71880781       -3.35599179 
H      1.71960896        2.91584894       -4.59621121 
H      3.12085903        1.84564225       -4.89483988 
14
Iteration: 2
Ca      0.00000000        0.00000000        0.00000000 
O      4.49055481        2.18967425       -1.72831516 
C      4.63054499        2.76437686       -2.78057930 
O      5.83533152        2.73692406       -3.39520337 
C      3.47317828        3.49089196       -3.47608159 
N      2.79635485        4.30785800       -2.46416609 
C      2.58772394        2.42144156       -4.15135501 
H      5.84812512        3.26922507       -4.21779323 
H      3.84965802        4.18761980       -4.24175417 
H      2.39991225        3.70811192       -1.73144036 
H      2.03413917        4.83599327       -2.89143287 
H      2.22589904        1.71818700       -3.38482869 
H      1.72299441        2.89876823       -4.62922220 
H      3.12464662        1.83996297       -4.91311012 
14
Iteration: 3
Ca      0.00000000        0.00000000        0.00000000 
O      4.43800726        2.15666338       -1.72268990 
C      4.61431843        2.75939327       -2.75772621 
O      5.81390224        2.70879950       -3.37556287 
C      3.47017482        3.49225273       -3.48319860 
N      2.79742623        4.31856561       -2.47960932 
C      2.58557232        2.42388367       -4.16704600 
H      5.80352194        3.27176464       -4.17603666 
H      3.86330248        4.18352564       -4.24519963 
H      2.44194311        3.73441274       -1.71161273 
H      2.02066356        4.83658515       -2.89079676 
H      2.22323159        1.71861514       -3.40367163 
H      1.72205152        2.89464311       -4.65260396 
H      3.13158599        1.84476135       -4.92386337 
14
Iteration: 4
Ca      0.00000000        0.00000000        0.00000000 
O      4.35996873        2.12780928       -1.70374101 
C      4.57752468        2.71783198       -2.74670169 
O      5.79226940        2.68694176       -3.33590605 
C      3.46352161        3.49026688       -3.49335347 
N      2.80016213        4.33337448       -2.50287561 
C      2.57682455        2.43212997       -4.19290196 
H      5.76661257        3.27604698       -4.11361093 
H      3.89040634        4.16882240       -4.25238986 
H      2.50155151        3.77318158       -1.68841849 
H      2.00122664        4.83677675       -2.89309947 
H      2.20703522        1.72232841       -3.43744819 
H      1.72051271        2.90426139       -4.69079388 
H      3.13941208        1.85927351       -4.94469367 
14
Iteration: 5
Ca      0.00000000        0.00000000        0.00000000 
O      4.32286736        2.10816615       -1.70011392 
C      4.55890242        2.70849060       -2.73577478 
O      5.78210922        2.67253517       -3.31358041 
C      3.45655494        3.48548822       -3.48919430 
N      2.79362410        4.33424468       -2.50710907 
C      2.56829747        2.43807435       -4.20165660 
H      5.77304642        3.26854792       -4.08489108 
H      3.90183842        4.15504721       -4.24880967 
H      2.50647934        3.78330218       -1.69106954 
H      1.99131915        4.83157459       -2.89766638 
H      2.18521289        1.72452993       -3.45531721 
H      1.72044806        2.91909340       -4.70788444 
H      3.13946319        1.87000388       -4.95266856 
14
Iteration: 6
Ca      0.00000000        0.00000000        0.00000000 
O      4.25456315        2.07759157       -1.69799312 
C      4.52030659        2.68919940       -2.71949138 
O      5.76317606        2.64231104       -3.26443103 
C      3.44660566        3.47797304       -3.48723541 
N      2.78320427        4.34083577       -2.52419463 
C      2.55444705        2.45571176       -4.22781457 
H      5.80196393        3.25700710       -4.02320382 
H      3.92769616        4.12849280       -4.24614450 
H      2.52716506        3.81422351       -1.68776388 
H      1.96833386        4.81593800       -2.91682101 
H      2.13652600        1.73651526       -3.50305954 
H      1.72924562        2.96252240       -4.75067088 
H      3.13752621        1.89377327       -4.97644749 
14
Iteration: 7
Ca      0.00000000        0.00000000        0.00000000 
O      4.17129222        2.04775221       -1.69438436 
C      4.47393432        2.66574860       -2.70118769 
O      5.73852205        2.60488245       -3.19971114 
C      3.44016848        3.47545701       -3.49427403 
N      2.77399331        4.35199243       -2.54949317 
C      2.54331390        2.48067737       -4.26574283 
H      5.83051476        3.22969251       -3.94717213 
H      3.95816505        4.10898519       -4.24547233 
H      2.55497199        3.85521886       -1.68500495 
H      1.94241119        4.79902924       -2.94002870 
H      2.08498741        1.76003769       -3.56450170 
H      1.74475971        3.01659232       -4.80414685 
H      3.13227054        1.91846899       -5.00916818 
14
Iteration: 8
Ca      0.00000000        0.00000000        0.00000000 
O      4.08871167        2.02401276       -1.68943709 
C      4.42830354        2.64143487       -2.68282757 
O      5.70978710        2.56235537       -3.13165930 
C      3.43863666        3.47688461       -3.50508490 
N      2.76403815        4.36359081       -2.57520826 
C      2.53692559        2.50931433       -4.30630104 
H      5.85045877        3.18685526       -3.87275142 
H      3.98974767        4.09894129       -4.24051307 
H      2.56776358        3.89450681       -1.69432382 
H      1.92137009        4.78661534       -2.96386286 
H      2.03968278        1.79455491       -3.62594148 
H      1.76576870        3.07339512       -4.85598478 
H      3.12413813        1.93908375       -5.04256352 
14
Iteration: 9
Ca      0.00000000        0.00000000        0.00000000 
O      3.99928133        2.00189908       -1.68518809 
C      4.38435771        2.61850104       -2.66420704 
O      5.67625531        2.51630224       -3.06526958 
C      3.44021234        3.48182392       -3.51880700 
N      2.75454788        4.38106195       -2.60489045 
C      2.53482693        2.53899354       -4.34618042 
H      5.85099077        3.13208135       -3.80308484 
H      4.02592609        4.09463738       -4.23322790 
H      2.58407722        3.93893197       -1.69914202 
H      1.89655480        4.77536354       -2.99039185 
H      2.00478254        1.83700000       -3.68143651 
H      1.79056359        3.12629215       -4.90595239 
H      3.11907300        1.95631574       -5.07339285 
14
Iteration: 10
Ca      0.00000000        0.00000000        0.00000000 
O      3.91819371        1.99242465       -1.68194326 
C      4.34369707        2.59599554       -2.64977178 
O      5.63681446        2.46268137       -3.00590515 
C      3.44686140        3.48930018       -3.52925581 
N      2.74289819        4.39726694       -2.62843427 
C      2.53864543        2.57271315       -4.38059453 
H      5.84634302        3.06316084       -3.74797291 
H      4.06475686        4.09777172       -4.21362921 
H      2.56155093        3.97075510       -1.72846856 
H      1.88270895        4.77004711       -3.02174326 
H      1.97520751        1.89318656       -3.72765979 
H      1.82556109        3.18329449       -4.95038732 
H      3.11461067        1.96868595       -5.09585673 
14
Iteration: 11
Ca      0.00000000        0.00000000        0.00000000 
O      3.82496831        1.97397099       -1.67840149 
C      4.29915628        2.57293182       -2.63356019 
O      5.60007073        2.40995544       -2.95000782 
C      3.44780394        3.49429536       -3.53626375 
N      2.73406025        4.41772979       -2.65508319 
C      2.53786257        2.60469008       -4.41478921 
H      5.84558090        3.01179371       -3.68736555 
H      4.10629845        4.09025761       -4.20039721 
H      2.56657352        4.00962567       -1.73906543 
H      1.86063943        4.75967077       -3.05490327 
H      1.93576817        1.93949371       -3.77645523 
H      1.85661803        3.23793038       -5.00487509 
H      3.11779980        1.98742779       -5.11722737 
14
Iteration: 12
Ca      0.00000000        0.00000000        0.00000000 
O      3.73661224        1.97716768       -1.67281195 
C      4.25471061        2.55829861       -2.61770311 
O      5.55411225        2.35715146       -2.90701329 
C      3.44904958        3.50077640       -3.53354097 
N      2.72593477        4.44516040       -2.67924721 
C      2.54538832        2.64013819       -4.44132297 
H      5.82001582        2.93154947       -3.65373758 
H      4.14781507        4.08020817       -4.17538130 
H      2.55821115        4.04552812       -1.74773989 
H      1.84001357        4.74742202       -3.09851467 
H      1.90193195        1.99610572       -3.81594389 
H      1.90247578        3.29033594       -5.06007953 
H      3.13369660        2.00580116       -5.12493691 
14
Iteration: 13
Ca      0.00000000        0.00000000        0.00000000 
O      3.64849176        1.97709489       -1.66660233 
C      4.20662789        2.54321362       -2.60078928 
O      5.50590163        2.29808485       -2.86622773 
C      3.44956845        3.50991308       -3.53180966 
N      2.71741681        4.46602641       -2.69827464 
C      2.55493472        2.67470558       -4.46880647 
H      5.80163886        2.85728334       -3.61699204 
H      4.18146817        4.07547595       -4.15092095 
H      2.52784137        4.06784849       -1.77292809 
H      1.83689331        4.75121092       -3.13361457 
H      1.87878843        2.04579733       -3.86067306 
H      1.94513110        3.33765881       -5.10680118 
H      3.14756914        2.02667218       -5.13623628 
14
Iteration: 14
Ca      0.00000000        0.00000000        0.00000000 
O      3.58009114        2.01904951       -1.65478500 
C      4.15290232        2.54721056       -2.58551309 
O      5.42741641        2.22203324       -2.88299137 
C      3.44776900        3.52766309       -3.50654487 
N      2.71416093        4.49095835       -2.69947377 
C      2.59029215        2.70777656       -4.47499487 
H      5.73245491        2.76253999       -3.64237739 
H      4.19624515        4.07476665       -4.10110362 
H      2.43101376        4.04881931       -1.81825256 
H      1.87173349        4.78707864       -3.17421328 
H      1.90135575        2.08700006       -3.89385097 
H      2.01413092        3.35793100       -5.13178431 
H      3.19640066        2.05351455       -5.11946453 
14
Iteration: 15
Ca      0.00000000        0.00000000        0.00000000 
O      3.49880276        2.00127603       -1.64308869 
C      4.10647343        2.52088052       -2.56423225 
O      5.38752156        2.17044699       -2.82549405 
C      3.45094434        3.53421219       -3.51371893 
N      2.70610671        4.50685102       -2.72146548 
C      2.59102066        2.73836596       -4.51406038 
H      5.72182239        2.70555694       -3.57871728 
H      4.23754180        4.07208524       -4.08558107 
H      2.42708156        4.08134282       -1.83796732 
H      1.85817038        4.78942854       -3.20136023 
H      1.85903522        2.12338482       -3.96001718 
H      2.04833987        3.42027939       -5.18659234 
H      3.20005412        2.07408731       -5.14599638 
14
Iteration: 16
Ca      0.00000000        0.00000000        0.00000000 
O      3.41428183        2.00037144       -1.63446259 
C      4.05612896        2.50383345       -2.54688941 
O      5.33128908        2.10740916       -2.79101015 
C      3.45216925        3.54235235       -3.51112410 
N      2.69855453        4.52716612       -2.73822259 
C      2.60427277        2.76974606       -4.54590014 
H      5.69275880        2.63526739       -3.54013248 
H      4.26886052        4.06821180       -4.05574457 
H      2.39545164        4.10398511       -1.85810658 
H      1.85624976        4.80242454       -3.23935379 
H      1.84514092        2.16399217       -4.01859343 
H      2.09361836        3.46944638       -5.22652953 
H      3.21863425        2.09742567       -5.16385041 
14
Iteration: 17
Ca      0.00000000        0.00000000        0.00000000 
O      3.34114801        1.99194104       -1.62580490 
C      4.00504571        2.48331199       -2.53282446 
O      5.26516147        2.04999322       -2.77044070 
C      3.45216304        3.54505895       -3.50566947 
N      2.69021187        4.53823712       -2.74528084 
C      2.62354816        2.79096449       -4.58215714 
H      5.64619004        2.57914972       -3.50349457 
H      4.29159544        4.06521778       -4.01433476 
H      2.34961526        4.11618820       -1.87357207 
H      1.86796161        4.84219609       -3.27703031 
H      1.83974684        2.18662981       -4.09643761 
H      2.14469209        3.51938105       -5.25592084 
H      3.24770718        2.12009515       -5.18898143 
14
Iteration: 18
Ca      0.00000000        0.00000000        0.00000000 
O      3.27144070        1.99732481       -1.61994527 
C      3.95059941        2.46994615       -2.52281325 
O      5.19806913        1.99058797       -2.75495925 
C      3.44592934        3.54771824       -3.49684316 
N      2.67796653        4.54529743       -2.74999429 
C      2.64356146        2.81394554       -4.61186719 
H      5.61255801        2.51396302       -3.47695596 
H      4.31099457        4.05859558       -3.97127550 
H      2.28830706        4.11483772       -1.89657119 
H      1.88859665        4.89121558       -3.30800870 
H      1.82905736        2.21542710       -4.16529720 
H      2.20090499        3.56220791       -5.29314868 
H      3.28425677        2.14513625       -5.20452346 
14
Iteration: 19
Ca      0.00000000        0.00000000        0.00000000 
O      3.20768489        2.00174879       -1.62322329 
C      3.89182921        2.45868093       -2.52710940 
O      5.12157818        1.94331096       -2.75931409 
C      3.42913822        3.54734818       -3.48950087 
N      2.66391932        4.53207802       -2.73866311 
C      2.67145974        2.82583606       -4.63935994 
H      5.56738341        2.46490940       -3.45527993 
H      4.30953660        4.05357600       -3.92228131 
H      2.20798282        4.07585828       -1.92767941 
H      1.94085267        4.99363627       -3.31901636 
H      1.85243837        2.22439539       -4.24089474 
H      2.25181066        3.57729046       -5.31041218 
H      3.33809807        2.17823091       -5.22614952 
14
Iteration: 20
Ca      0.00000000        0.00000000        0.00000000 
O      3.12172415        1.99888421       -1.62186459 
C      3.84062465        2.44071484       -2.51257640 
O      5.06649528        1.89176413       -2.71905378 
C      3.42562704        3.55266882       -3.48655893 
N      2.65315276        4.54408533       -2.75422915 
C      2.68494325        2.86069075       -4.66887159 
H      5.53619955        2.39724118       -3.41403056 
H      4.33824994        4.04466976       -3.89316252 
H      2.17647323        4.08525032       -1.95945168 
H      1.94904928        5.00787125       -3.33999979 
H      1.82976447        2.27081248       -4.29575013 
H      2.30378370        3.62378261       -5.36728782 
H      3.36097754        2.20370491       -5.23876473 
14
Iteration: 21
Ca      0.00000000        0.00000000        0.00000000 
O      3.04084072        1.98439070       -1.63606595 
C      3.78771894        2.42136007       -2.50774042 
O      5.00435590        1.84536044       -2.68411637 
C      3.41812681        3.55208958       -3.48440678 
N      2.63739478        4.54350884       -2.76133470 
C      2.70290049        2.89260453       -4.69841389 
H      5.51521990        2.34141087       -3.36860034 
H      4.35039084        4.03206525       -3.85839784 
H      2.12972150        4.08216147       -1.99530984 
H      1.96995110        5.03847001       -3.35814856 
H      1.82465705        2.31181384       -4.35750299 
H      2.35725309        3.67166249       -5.40675379 
H      3.38289454        2.22921925       -5.25672821 
14
Iteration: 22
Ca      0.00000000        0.00000000        0.00000000 
O      2.96011188        1.96674422       -1.66580992 
C      3.73989793        2.40129623       -2.51108273 
O      4.94320413        1.81289313       -2.65609712 
C      3.40855358        3.54792906       -3.48127914 
N      2.62084097        4.53713605       -2.76324042 
C      2.72683254        2.92655955       -4.72169822 
H      5.47156858        2.29189864       -3.33043368 
H      4.35915178        4.01641918       -3.81883549 
H      2.06636761        4.07066856       -2.04464893 
H      2.00957846        5.07204541       -3.37108649 
H      1.83308256        2.35391271       -4.41181366 
H      2.41293620        3.71319980       -5.43509637 
H      3.40641383        2.25222240       -5.26797563 
14
Iteration: 23
Ca      0.00000000        0.00000000        0.00000000 
O      2.88396843        1.96178646       -1.69044014 
C      3.69170235        2.38547624       -2.51597898 
O      4.88050471        1.76582368       -2.64290207 
C      3.40061794        3.54624063       -3.47516440 
N      2.60788832        4.53168628       -2.75814301 
C      2.75293184        2.95455067       -4.74436510 
H      5.43665858        2.23798352       -3.30062186 
H      4.36428678        4.01048970       -3.77044160 
H      1.97822954        4.05452219       -2.09349376 
H      2.05834042        5.12154533       -3.39880912 
H      1.84870789        2.38469246       -4.47286246 
H      2.46507020        3.75205729       -5.44370662 
H      3.43174694        2.27619542       -5.28260120 
14
Iteration: 24
Ca      0.00000000        0.00000000        0.00000000 
O      2.79793831        1.94656806       -1.72096529 
C      3.63859742        2.36172293       -2.51869303 
O      4.82120258        1.71834901       -2.61499993 
C      3.39296117        3.54329292       -3.47261529 
N      2.59766993        4.53321506       -2.76084133 
C      2.77439954        2.98422887       -4.77369077 
H      5.40408854        2.19082287       -3.25331026 
H      4.37235780        4.00338460       -3.72592984 
H      1.92374644        4.05610825       -2.14258675 
H      2.08782092        5.13802870       -3.41659100 
H      1.86113971        2.41999149       -4.53688955 
H      2.51345779        3.79892520       -5.45472834 
H      3.45261004        2.30393912       -5.30615484 
14
Iteration: 25
Ca      0.00000000        0.00000000        0.00000000 
O      2.72384212        1.91593142       -1.78645338 
C      3.58936885        2.33065262       -2.53744863 
O      4.77059089        1.69118414       -2.60210311 
C      3.38137752        3.52391620       -3.46416430 
N      2.59326953        4.52547294       -2.75008768 
C      2.79623568        3.00224971       -4.79512741 
H      5.36999290        2.17944254       -3.20450153 
H      4.35025683        3.98579843       -3.67093532 
H      1.86091189        4.05574688       -2.21304323 
H      2.13580848        5.14000725       -3.42197312 
H      1.86425710        2.44615956       -4.60872181 
H      2.57435957        3.86206945       -5.44161168 
H      3.48069015        2.32768066       -5.32468143 
14
Iteration: 26
Ca      0.00000000        0.00000000        0.00000000 
O      2.63402257        1.89064629       -1.80377477 
C      3.53291346        2.30631537       -2.52966598 
O      4.70960533        1.65340371       -2.57096436 
C      3.37579672        3.52296249       -3.45962422 
N      2.58142471        4.53304312       -2.76160758 
C      2.81277409        3.02962802       -4.82295739 
H      5.32281021        2.13231291       -3.16122855 
H      4.38061963        3.96829932       -3.63479113 
H      1.82280848        4.06383936       -2.25100141 
H      2.15269486        5.16955398       -3.43863193 
H      1.85762741        2.48626622       -4.66892679 
H      2.62739201        3.90351380       -5.48077938 
H      3.51591780        2.35747535       -5.33950903 
14
Iteration: 27
Ca      0.00000000        0.00000000        0.00000000 
O      2.54011965        1.86233390       -1.85465757 
C      3.47470030        2.28540766       -2.53976161 
O      4.64864235        1.61346817       -2.55091896 
C      3.36551179        3.51851247       -3.45770882 
N      2.56794442        4.53296435       -2.76618731 
C      2.83373309        3.05505366       -4.83681909 
H      5.29774873        2.09677252       -3.11322538 
H      4.38240368        3.94181663       -3.60415937 
H      1.76628512        4.06800467       -2.31035942 
H      2.19055495        5.20453611       -3.44806823 
H      1.87807743        2.52351996       -4.71697165 
H      2.67231880        3.93415884       -5.47882722 
H      3.54614593        2.39260152       -5.35249660 
14
Iteration: 28
Ca      0.00000000        0.00000000        0.00000000 
O      2.45729983        1.83069827       -1.90603824 
C      3.41458277        2.25889197       -2.54872313 
O      4.58791150        1.58407611       -2.52930903 
C      3.35323896        3.50741652       -3.45232320 
N      2.55474701        4.52735890       -2.76775899 
C      2.85424408        3.07854661       -4.85749651 
H      5.25849795        2.07526877       -3.05937172 
H      4.38660960        3.91131586       -3.56564406 
H      1.72478325        4.07777128       -2.36796392 
H      2.22591969        5.22723917       -3.44760640 
H      1.89088906        2.55392437       -4.78371766 
H      2.71873319        3.96946221       -5.47695526 
H      3.57578514        2.42893493       -5.37470574 
14
Iteration: 29
Ca      0.00000000        0.00000000        0.00000000 
O      2.37933272        1.81883496       -1.95939461 
C      3.36057118        2.24222511       -2.56074261 
O      4.52911984        1.55643395       -2.51600761 
C      3.34379379        3.49725044       -3.44542511 
N      2.54462557        4.52122313       -2.76831106 
C      2.87927903        3.10204918       -4.86744814 
H      5.20869472        2.04312132       -3.02203778 
H      4.37365945        3.88353552       -3.52789389 
H      1.66516974        4.08137187       -2.43988891 
H      2.26788663        5.23753303       -3.44842983 
H      1.90305848        2.59414476       -4.83648320 
H      2.78150641        4.01463560       -5.47524596 
H      3.60448087        2.44877986       -5.37759640 
14
Iteration: 30
Ca      0.00000000        0.00000000        0.00000000 
O      2.29115672        1.79779085       -2.01885414 
C      3.30012421        2.22448998       -2.57678831 
O      4.46350455        1.53189370       -2.49936364 
C      3.33015597        3.48454904       -3.44636554 
N      2.52897743        4.50808253       -2.77739474 
C      2.89985434        3.12032253       -4.87950852 
H      5.16360333        2.02997592       -2.96750316 
H      4.36619269        3.84948016       -3.49756140 
H      1.64317452        4.09879240       -2.49687075 
H      2.29903663        5.25332125       -3.43285676 
H      1.91867112        2.63755504       -4.88615357 
H      2.83776106        4.05028381       -5.47968919 
H      3.63305400        2.46288891       -5.38169620 
14
Iteration: 31
Ca      0.00000000        0.00000000        0.00000000 
O      2.21968086        1.77867346       -2.06013633 
C      3.24388868        2.19901062       -2.59025540 
O      4.39279167        1.49908221       -2.48579440 
C      3.31393216        3.47110811       -3.44177424 
N      2.51203319        4.49006131       -2.77346192 
C      2.92373481        3.14161125       -4.90824726 
H      5.12421670        2.01269022       -2.91554591 
H      4.36594721        3.83310643       -3.44354342 
H      1.59249597        4.09450883       -2.54755364 
H      2.34824574        5.29638280       -3.42493939 
H      1.92611719        2.66837934       -4.96215777 
H      2.89202802        4.08700622       -5.49405096 
H      3.66085269        2.48101318       -5.40138411 
14
Iteration: 32
Ca      0.00000000        0.00000000        0.00000000 
O      2.20434643        1.78791269       -2.06703069 
C      3.23214707        2.20015285       -2.59009553 
O      4.37485377        1.48867333       -2.48660389 
C      3.31540766        3.47974670       -3.43707144 
N      2.50714853        4.50329889       -2.77967412 
C      2.93688471        3.15282700       -4.90468727 
H      5.09847152        1.98486503       -2.92439828 
H      4.37691244        3.83356729       -3.43306128 
H      1.57755438        4.10508013       -2.57042254 
H      2.34081841        5.27989614       -3.42594469 
H      1.93904361        2.68708175       -4.96085314 
H      2.90107502        4.07328104       -5.49047646 
H      3.66868321        2.48594841       -5.39355509 
14
Iteration: 33
Ca      0.00000000        0.00000000        0.00000000 
O      2.17951176        1.79153619       -2.07750820 
C      3.21914403        2.19988765       -2.59280681 
O      4.36218913        1.47712462       -2.47665510 
C      3.31290753        3.47903512       -3.43911784 
N      2.49993186        4.50369887       -2.78554582 
C      2.94432802        3.15418674       -4.90530134 
H      5.08879863        1.96302239       -2.91085427 
H      4.35477473        3.82761176       -3.43377767 
H      1.57744484        4.11497709       -2.58507197 
H      2.34473325        5.28431003       -3.42602869 
H      1.94845354        2.69303632       -4.97087996 
H      2.92353577        4.09311871       -5.48632810 
H      3.67143067        2.48957608       -5.39589146 
14
Iteration: 34
Ca      0.00000000        0.00000000        0.00000000 
O      2.17015086        1.80066680       -2.08775240 
C      3.20421279        2.19861695       -2.60100753 
O      4.33697552        1.47061164       -2.48319070 
C      3.30508485        3.47595254       -3.43860077 
N      2.48996959        4.49819481       -2.78720653 
C      2.95144139        3.15679866       -4.90585468 
H      5.07315917        1.95298041       -2.90862938 
H      4.35339400        3.82397521       -3.41710944 
H      1.55862086        4.11509096       -2.60739684 
H      2.36063094        5.29992096       -3.41860055 
H      1.95866126        2.70596348       -4.97822416 
H      2.93954664        4.09400287       -5.48634730 
H      3.67983423        2.48392882       -5.38759460 
14
Iteration: 35
Ca      0.00000000        0.00000000        0.00000000 
O      2.14684750        1.79859489       -2.09410383 
C      3.19071515        2.19419713       -2.60212424 
O      4.31417551        1.45700715       -2.47845481 
C      3.30299262        3.47738758       -3.43644036 
N      2.48558774        4.50226614       -2.78954881 
C      2.96001669        3.16589665       -4.91451936 
H      5.06727363        1.93539124       -2.90049643 
H      4.35995298        3.82789075       -3.39670975 
H      1.54653956        4.11821161       -2.61923874 
H      2.36326773        5.29896887       -3.42261628 
H      1.95320302        2.71830526       -4.99909735 
H      2.95689744        4.10215608       -5.49240785 
H      3.68832903        2.48596402       -5.38792731 
14
Iteration: 36
Ca      0.00000000        0.00000000        0.00000000 
O      2.12642581        1.80118778       -2.10241653 
C      3.17637734        2.19327388       -2.60401341 
O      4.29521234        1.44889716       -2.47715211 
C      3.29930436        3.47833396       -3.43510534 
N      2.47778527        4.50180196       -2.79297199 
C      2.96827039        3.17002714       -4.91593778 
H      5.04581918        1.91755631       -2.89632906 
H      4.35281248        3.82364436       -3.38882804 
H      1.53607747        4.12302766       -2.63762446 
H      2.37368120        5.31072251       -3.41899770 
H      1.96518242        2.72703702       -5.00853190 
H      2.97275370        4.10450666       -5.49261672 
H      3.69835188        2.49028786       -5.38570011 
14
Iteration: 37
Ca      0.00000000        0.00000000        0.00000000 
O      2.11382033        1.81667337       -2.10176815 
C      3.16309645        2.19565942       -2.60600805 
O      4.27169488        1.43564079       -2.48024545 
C      3.29487598        3.48101130       -3.43331524 
N      2.46701916        4.50450698       -2.79938359 
C      2.97752768        3.17235457       -4.91591745 
H      5.02952282        1.89194741       -2.89725794 
H      4.34130499        3.82321841       -3.37898999 
H      1.52806658        4.13157905       -2.65590788 
H      2.37636644        5.31384841       -3.41714557 
H      1.97694255        2.73407665       -5.01741185 
H      2.99596088        4.11177437       -5.49177344 
H      3.70519955        2.49001535       -5.37956996 
14
Iteration: 38
Ca      0.00000000        0.00000000        0.00000000 
O      2.09185853        1.82088435       -2.10916365 
C      3.14796997        2.19494593       -2.60897841 
O      4.25017943        1.42655620       -2.48038105 
C      3.29064709        3.48172395       -3.43260643 
N      2.46042789        4.50555368       -2.80330032 