14
Iteration: 0
Ca      0.0   0.0   0.0 
O      2.0465   -3.7874   -0.7062 
C      2.1647   -3.1916   -1.8100 
O      3.3969   -3.2015   -2.4582 
C      0.9731   -2.5219   -2.4402 
N      0.2507   -1.7309   -1.4411 
C      0.0568   -3.5654   -3.0898 
H      3.5231   -2.7549   -3.3586 
H      1.3329   -1.8330   -3.2361 
H     -0.2299   -2.3710   -0.7667 
H     -0.4945   -1.1808   -1.9275 
H     -0.3238   -4.2824   -2.3308 
H     -0.8078   -3.0632   -3.5733 
H      0.6135   -4.1289   -3.8691 
14
Iteration: 1
Ca      0.00000000        0.00000000        0.00000000 
O      2.05802795       -3.73653689       -0.70619191 
C      2.17633375       -3.18711300       -1.79484597 
O      3.38359101       -3.22510163       -2.43964041 
C      0.99279749       -2.50838083       -2.45991252 
N      0.24576909       -1.72745483       -1.45315713 
C      0.06498397       -3.55215072       -3.09476478 
H      3.45340227       -2.77634301       -3.32124068 
H      1.33926902       -1.79887043       -3.23249677 
H     -0.20458197       -2.40360163       -0.79872082 
H     -0.54174117       -1.26525707       -1.96568123 
H     -0.30704231       -4.25616793       -2.33047376 
H     -0.79804084       -3.04946158       -3.56301994 
H      0.59333626       -4.12699686       -3.87098530 
14
Iteration: 2
Ca      0.00000000        0.00000000        0.00000000 
O      2.04846358       -3.65110526       -0.67184131 
C      2.18213539       -3.16302305       -1.76292932 
O      3.35895039       -3.25070284       -2.41521933 
C      1.00886473       -2.48767272       -2.49000640 
N      0.20934628       -1.73210115       -1.47558198 
C      0.08529455       -3.53884078       -3.11647883 
H      3.35722862       -2.80383205       -3.28258982 
H      1.35316480       -1.75660013       -3.23495610 
H     -0.17618344       -2.46117723       -0.83421693 
H     -0.63989982       -1.39128547       -2.00601702 
H     -0.27515286       -4.22392870       -2.33678624 
H     -0.78151931       -3.04223810       -3.57090603 
H      0.58680372       -4.13034940       -3.88724118 
14
Iteration: 3
Ca      0.00000000        0.00000000        0.00000000 
O      2.03241334       -3.54571306       -0.60787507 
C      2.16984668       -3.14568523       -1.74410397 
O      3.33796567       -3.25857117       -2.39749063 
C      1.00281337       -2.47796871       -2.50890490 
N      0.16159251       -1.74788955       -1.49223258 
C      0.10317379       -3.54031286       -3.14636893 
H      3.29518574       -2.83027998       -3.27159848 
H      1.35461177       -1.73179791       -3.23530469 
H     -0.17414488       -2.50396096       -0.85200342 
H     -0.70662245       -1.46390151       -2.01640425 
H     -0.25013999       -4.22148623       -2.36118068 
H     -0.76824319       -3.05343962       -3.60053636 
H      0.60492621       -4.13374906       -3.91258835 
14
Iteration: 4
Ca      0.00000000        0.00000000        0.00000000 
O      2.01259190       -3.43941854       -0.54919153 
C      2.16226277       -3.08634323       -1.70497456 
O      3.30762487       -3.28757394       -2.39374098 
C      0.98919868       -2.46384417       -2.51452157 
N      0.10054266       -1.76599911       -1.50175974 
C      0.12940461       -3.54176174       -3.17984638 
H      3.22926652       -2.89028791       -3.28365709 
H      1.35162217       -1.70167770       -3.22240771 
H     -0.17228011       -2.53861863       -0.85172615 
H     -0.77309765       -1.53214130       -2.01109675 
H     -0.22072252       -4.22962783       -2.39851462 
H     -0.74867150       -3.07020479       -3.64093530 
H      0.64503686       -4.12728299       -3.94351832 
14
Iteration: 5
Ca      0.00000000        0.00000000        0.00000000 
O      2.00155034       -3.33979221       -0.50364212 
C      2.13776003       -3.05452946       -1.68863109 
O      3.27708456       -3.29304312       -2.37864065 
C      0.96363163       -2.45192578       -2.50719578 
N      0.04247135       -1.78147654       -1.50306370 
C      0.15188117       -3.54589019       -3.21041666 
H      3.18364418       -2.95385133       -3.29672865 
H      1.33531060       -1.67831034       -3.20181403 
H     -0.17094805       -2.55348094       -0.83341123 
H     -0.83973811       -1.59803840       -2.00210800 
H     -0.20159845       -4.25538389       -2.44830054 
H     -0.72773695       -3.09101903       -3.69008225 
H      0.70297545       -4.10868866       -3.97105741 
14
Iteration: 6
Ca      0.00000000        0.00000000        0.00000000 
O      1.99109831       -3.27229329       -0.49269731 
C      2.10323983       -3.01837142       -1.67905117 
O      3.23831449       -3.29525545       -2.36131330 
C      0.92785485       -2.43531144       -2.48384772 
N     -0.01521987       -1.79698533       -1.49385953 
C      0.17477945       -3.54607457       -3.23536967 
H      3.15674508       -3.03312186       -3.31105828 
H      1.30379842       -1.65389370       -3.17022558 
H     -0.15792809       -2.54937445       -0.78840495 
H     -0.91312595       -1.67665667       -1.97977877 
H     -0.18780805       -4.29320103       -2.50824673 
H     -0.70147901       -3.11325860       -3.74815967 
H      0.78491737       -4.06979068       -3.99162360 
14
Iteration: 7
Ca      0.00000000        0.00000000        0.00000000 
O      1.98263718       -3.18298048       -0.46586722 
C      2.07220026       -2.99000825       -1.67007626 
O      3.19802555       -3.31277715       -2.34737951 
C      0.90009492       -2.42274619       -2.47732681 
N     -0.06098010       -1.82208795       -1.48979491 
C      0.18994596       -3.54252910       -3.26146539 
H      3.13592044       -3.08600817       -3.29735027 
H      1.26739720       -1.62925134       -3.15315658 
H     -0.14603949       -2.56487859       -0.76271140 
H     -0.98368485       -1.76722251       -1.96052860 
H     -0.17333052       -4.31733091       -2.56275213 
H     -0.67895206       -3.12907719       -3.80098471 
H      0.84407872       -4.03267544       -4.00767250 
14
Iteration: 8
Ca      0.00000000        0.00000000        0.00000000 
O      1.98344344       -3.10034238       -0.44780255 
C      2.04431223       -2.96284380       -1.66003925 
O      3.16015095       -3.31099565       -2.32215879 
C      0.87029893       -2.41854035       -2.47016792 
N     -0.10474011       -1.86720059       -1.47668494 
C      0.20462560       -3.54041854       -3.28980191 
H      3.10669924       -3.14127692       -3.28472390 
H      1.21799276       -1.60508394       -3.13135530 
H     -0.16502754       -2.59151408       -0.74992197 
H     -1.01967174       -1.84052259       -1.92446298 
H     -0.15501332       -4.34084856       -2.62121561 
H     -0.65188374       -3.14303268       -3.85378400 
H      0.89692805       -3.99399497       -4.02144207 
14
Iteration: 9
Ca      0.00000000        0.00000000        0.00000000 
O      1.97595499       -3.01526711       -0.41883284 
C      2.03096431       -2.92375051       -1.63434987 
O      3.13075776       -3.31842813       -2.29818316 
C      0.85020852       -2.41041574       -2.46869675 
N     -0.15524903       -1.89569495       -1.47680937 
C      0.22554933       -3.53565579       -3.32060190 
H      3.05737138       -3.20101723       -3.27828874 
H      1.18609800       -1.57724950       -3.11208793 
H     -0.15651878       -2.62521139       -0.73353329 
H     -1.09544549       -1.93518982       -1.91075377 
H     -0.13259192       -4.34770043       -2.67081677 
H     -0.62260792       -3.14733491       -3.89837976 
H      0.93451770       -3.96888432       -4.03988230 
14
Iteration: 10
Ca      0.00000000        0.00000000        0.00000000 
O      1.97074951       -2.94260149       -0.40152406 
C      2.01593699       -2.89768611       -1.62083215 
O      3.10195416       -3.33241237       -2.28671002 
C      0.82189650       -2.41149633       -2.46197690 
N     -0.20439762       -1.92928547       -1.46971367 
C      0.24176633       -3.53857870       -3.34701873 
H      3.02693817       -3.21090290       -3.24664015 
H      1.14406885       -1.55851732       -3.08793713 
H     -0.18057690       -2.65510735       -0.72590795 
H     -1.14176983       -2.00155487       -1.89768601 
H     -0.11021263       -4.36871825       -2.71883504 
H     -0.60110553       -3.15942555       -3.93680439 
H      0.97282746       -3.94457244       -4.05752500 
14
Iteration: 11
Ca      0.00000000        0.00000000        0.00000000 
O      1.96824962       -2.86522969       -0.38194771 
C      1.99867197       -2.87599944       -1.61065680 
O      3.08330779       -3.31321022       -2.25878624 
C      0.79017410       -2.41818113       -2.45269195 
N     -0.24808671       -1.96158238       -1.46235760 
C      0.25306788       -3.54230752       -3.36883204 
H      2.99226011       -3.23984034       -3.23202367 
H      1.09866608       -1.54928529       -3.06364322 
H     -0.21832873       -2.67685019       -0.72316777 
H     -1.17260955       -2.05519105       -1.89439969 
H     -0.09232655       -4.39797575       -2.76774901 
H     -0.58457660       -3.17227290       -3.97422966 
H      1.01563173       -3.91360030       -4.07273426 
14
Iteration: 12
Ca      0.00000000        0.00000000        0.00000000 
O      1.95180834       -2.81970615       -0.38903665 
C      1.98534357       -2.85416366       -1.60159600 
O      3.07422276       -3.28698731       -2.22677493 
C      0.76078658       -2.42717923       -2.44552419 
N     -0.28198916       -1.98974398       -1.45762953 
C      0.26121946       -3.54117249       -3.37818769 
H      2.96872798       -3.24727690       -3.20288957 
H      1.04863776       -1.54741305       -3.04529400 
H     -0.25365390       -2.69800402       -0.71842291 
H     -1.19586710       -2.09973169       -1.90094188 
H     -0.07076000       -4.41858942       -2.80312079 
H     -0.57115280       -3.17627110       -3.99395774 
H      1.03964262       -3.88033627       -4.07587266 
14
Iteration: 13
Ca      0.00000000        0.00000000        0.00000000 
O      1.93765856       -2.72054196       -0.36639865 
C      1.96502363       -2.81503686       -1.58571134 
O      3.04857293       -3.29309923       -2.21021072 
C      0.73375357       -2.42245752       -2.44184668 
N     -0.32585883       -2.01369304       -1.45791748 
C      0.27680908       -3.53804160       -3.39356039 
H      2.93894542       -3.29503345       -3.19220574 
H      1.00903495       -1.53357347       -3.03175095 
H     -0.27144201       -2.71936256       -0.70806327 
H     -1.23771042       -2.15368725       -1.90010093 
H     -0.04491269       -4.43848117       -2.84436936 
H     -0.55351994       -3.18836572       -4.02451742 
H      1.07884961       -3.84493882       -4.08546872 
14
Iteration: 14
Ca      0.00000000        0.00000000        0.00000000 
O      1.92439461       -2.64729740       -0.35439518 
C      1.94887872       -2.79218121       -1.57817494 
O      3.03586944       -3.28381358       -2.19215349 
C      0.71745737       -2.42316101       -2.44409636 
N     -0.35115803       -2.02672419       -1.46383859 
C      0.28348506       -3.53758408       -3.39781374 
H      2.92614229       -3.29828310       -3.16579084 
H      0.98402215       -1.53040875       -3.03118099 
H     -0.30110396       -2.73704399       -0.71696960 
H     -1.26041033       -2.17535617       -1.91503601 
H     -0.02347040       -4.44334225       -2.85823051 
H     -0.54991792       -3.19914357       -4.02979174 
H      1.08522448       -3.82764941       -4.08825204 
14
Iteration: 15
Ca      0.00000000        0.00000000        0.00000000 
O      1.90440991       -2.58548367       -0.35338786 
C      1.92848439       -2.76375933       -1.57141687 
O      3.02312130       -3.26269320       -2.17334898 
C      0.70085597       -2.42095228       -2.44470627 
N     -0.38136184       -2.03686873       -1.47135402 
C      0.29263722       -3.54341221       -3.39934405 
H      2.91640491       -3.30371223       -3.14365766 
H      0.96236043       -1.52443044       -3.03211393 
H     -0.34487147       -2.75719437       -0.73211201 
H     -1.28356954       -2.17905273       -1.93283782 
H      0.00564453       -4.45850664       -2.86779568 
H     -0.55188003       -3.22425633       -4.02788144 
H      1.10005188       -3.80965504       -4.09450664 
14
Iteration: 16
Ca      0.00000000        0.00000000        0.00000000 
O      1.88439272       -2.52293732       -0.37083803 
C      1.90691128       -2.73310230       -1.57100010 
O      3.02325084       -3.21085837       -2.15303768 
C      0.69623920       -2.42864036       -2.45041272 
N     -0.39361340       -2.02997288       -1.49795738 
C      0.29840056       -3.56408584       -3.38850664 
H      2.92186728       -3.31107410       -3.12347779 
H      0.95730931       -1.54020034       -3.05714167 
H     -0.42525965       -2.77830290       -0.78433078 
H     -1.28655866       -2.11998122       -1.99350510 
H      0.05628971       -4.48240791       -2.84751719 
H     -0.57644658       -3.27236331       -3.98441595 
H      1.08559471       -3.79977769       -4.11175224 
14
Iteration: 17
Ca      0.00000000        0.00000000        0.00000000 
O      1.88009636       -2.42677960       -0.37029192 
C      1.89213779       -2.69543263       -1.56314056 
O      3.01415047       -3.18190725       -2.13449681 
C      0.68150345       -2.43705856       -2.44958074 
N     -0.42343367       -2.03575286       -1.51659688 
C      0.30772823       -3.58240629       -3.39065539 
H      2.90704489       -3.33797679       -3.10190286 
H      0.93677871       -1.54874345       -3.06404613 
H     -0.50298125       -2.79931968       -0.82086397 
H     -1.30212540       -2.08742613       -2.03893497 
H      0.10584294       -4.52081049       -2.85613435 
H     -0.59008646       -3.31521662       -3.96589141 
H      1.09457536       -3.77469814       -4.13722841 
14
Iteration: 18
Ca      0.00000000        0.00000000        0.00000000 
O      1.90610161       -2.30773285       -0.37230847 
C      1.90047457       -2.65380200       -1.55523011 
O      3.01341144       -3.15998779       -2.12747551 
C      0.67664454       -2.45359530       -2.44532459 
N     -0.44026034       -2.03129420       -1.53818735 
C      0.31484504       -3.61046576       -3.39244355 
H      2.88414833       -3.37084179       -3.07857300 
H      0.92351836       -1.57008048       -3.07258791 
H     -0.60350278       -2.81395119       -0.87216398 
H     -1.30009853       -2.00012733       -2.10103000 
H      0.16303179       -4.56408326       -2.85447338 
H     -0.61193082       -3.36551967       -3.93350039 
H      1.08364783       -3.75962497       -4.17434479 
14
Iteration: 19
Ca      0.00000000        0.00000000        0.00000000 
O      1.89985541       -2.20860139       -0.38471428 
C      1.89249708       -2.61093339       -1.55502292 
O      3.00568332       -3.13609170       -2.10880714 
C      0.66170231       -2.45174324       -2.45226242 
N     -0.46682210       -2.03473153       -1.55546317 
C      0.32800531       -3.62796659       -3.39403000 
H      2.86438948       -3.40729070       -3.05557883 
H      0.89572980       -1.57127790       -3.08545538 
H     -0.67237120       -2.82771290       -0.90935087 
H     -1.31456475       -1.96042142       -2.13779694 
H      0.20499978       -4.58410300       -2.85825038 
H     -0.61343136       -3.41120508       -3.93033469 
H      1.09218699       -3.75719519       -4.18032931 
14
Iteration: 20
Ca      0.00000000        0.00000000        0.00000000 
O      1.90791099       -2.11834044       -0.42232416 
C      1.90241504       -2.56751092       -1.56923450 
O      2.99881725       -3.12447880       -2.09972665 
C      0.64800095       -2.44287678       -2.46411213 
N     -0.48007730       -2.02476241       -1.57327050 
C      0.33872095       -3.65464740       -3.39147314 
H      2.83895804       -3.43171803       -3.02107856 
H      0.85816932       -1.57449145       -3.10807608 
H     -0.73326460       -2.81599482       -0.95291294 
H     -1.31621536       -1.87294926       -2.16682928 
H      0.24033561       -4.60588974       -2.85007853 
H     -0.60680619       -3.46892260       -3.93566976 
H      1.10397620       -3.77962737       -4.17230113 
14
Iteration: 21
Ca      0.00000000        0.00000000        0.00000000 
O      1.87517878       -2.02575218       -0.45280731 
C      1.87569451       -2.52894122       -1.58332890 
O      2.97224740       -3.12429880       -2.07188255 
C      0.62178404       -2.42994316       -2.48426501 
N     -0.50148066       -2.03361204       -1.59025746 
C      0.34957765       -3.65864261       -3.39094178 
H      2.82095958       -3.47708637       -2.98196817 
H      0.80745562       -1.56470647       -3.13507865 
H     -0.74919683       -2.82202603       -0.97907094 
H     -1.33432913       -1.87313607       -2.17308379 
H      0.27247936       -4.61058157       -2.85283391 
H     -0.58459766       -3.49957401       -3.95477091 
H      1.13334253       -3.77110810       -4.15610553 
14
Iteration: 22
Ca      0.00000000        0.00000000        0.00000000 
O      1.84282309       -1.94846717       -0.50152041 
C      1.84620118       -2.49530756       -1.60742284 
O      2.94635029       -3.11654303       -2.04296731 
C      0.60871420       -2.41732909       -2.51422920 
N     -0.51094803       -2.02951282       -1.61898507 
C      0.35539608       -3.66012116       -3.38065238 
H      2.80737740       -3.51115518       -2.93420028 
H      0.77728225       -1.56038626       -3.18640885 
H     -0.75779660       -2.83932179       -1.02802637 
H     -1.34517461       -1.84715685       -2.19164865 
H      0.31039270       -4.59971724       -2.81806054 
H     -0.57486974       -3.53512683       -3.94915701 
H      1.14249092       -3.77049786       -4.14242271 
14
Iteration: 23
Ca      0.00000000        0.00000000        0.00000000 
O      1.83681178       -1.83945577       -0.53361171 
C      1.82608700       -2.44563952       -1.61439617 
O      2.90845193       -3.12460649       -2.01921612 
C      0.59144833       -2.40756006       -2.52580184 
N     -0.54276801       -2.03666387       -1.63518157 
C      0.37470324       -3.66142147       -3.38801602 
H      2.76821711       -3.56565541       -2.88818992 
H      0.74793680       -1.54866279       -3.20680476 
H     -0.78269158       -2.85785898       -1.06470203 
H     -1.37583213       -1.85221728       -2.20489688 
H      0.34911763       -4.59269258       -2.80989727 
H     -0.55499199       -3.57298488       -3.96113347 
H      1.16613647       -3.76188195       -4.14845015 
14
Iteration: 24
Ca      0.00000000        0.00000000        0.00000000 
O      1.83053158       -1.75058689       -0.57200666 
C      1.80568764       -2.40412723       -1.62471000 
O      2.87532935       -3.11380417       -1.98981084 
C      0.57632901       -2.39899573       -2.53841133 
N     -0.57507341       -2.03761753       -1.65356760 
C      0.39279016       -3.66386576       -3.39609875 
H      2.72519181       -3.59449758       -2.83451909 
H      0.73658173       -1.54222014       -3.22461318 
H     -0.80447231       -2.87164374       -1.09907755 
H     -1.40492537       -1.85996985       -2.22858733 
H      0.37834189       -4.58459826       -2.79755758 
H     -0.54539242       -3.61592358       -3.96674613 
H      1.18454720       -3.76012438       -4.15997163 
14
Iteration: 25
Ca      0.00000000        0.00000000        0.00000000 
O      1.81255636       -1.66120427       -0.60961429 
C      1.78983101       -2.36400735       -1.63529196 
O      2.85820372       -3.09691621       -1.96195294 
C      0.56249477       -2.39621212       -2.55384650 
N     -0.59310394       -2.03554738       -1.67597655 
C      0.40313461       -3.67226850       -3.39544758 
H      2.70160186       -3.61706798       -2.78533485 
H      0.71656484       -1.54414320       -3.24725653 
H     -0.84094314       -2.88021027       -1.13578107 
H     -1.41392251       -1.84764074       -2.27106018 
H      0.41023425       -4.59313374       -2.78606616 
H     -0.54522919       -3.65192097       -3.95219751 
H      1.18810977       -3.75413883       -4.17059596 
14
Iteration: 26
Ca      0.00000000        0.00000000        0.00000000 
O      1.78630617       -1.59079682       -0.66872000 
C      1.77570156       -2.32509568       -1.65132486 
O      2.83886199       -3.08260922       -1.92529936 
C      0.55150074       -2.39131887       -2.57424342 
N     -0.61114267       -2.03309346       -1.70042962 
C      0.41433712       -3.67097819       -3.39883204 
H      2.67262218       -3.62290458       -2.71671345 
H      0.70343578       -1.54124020       -3.26744526 
H     -0.84607312       -2.87437146       -1.15746452 
H     -1.42324734       -1.88984871       -2.31832010 
H      0.40979221       -4.57796245       -2.77096237 
H     -0.53278942       -3.66705918       -3.94054356 
H      1.18444098       -3.76190264       -4.18016470 
14
Iteration: 27
Ca      0.00000000        0.00000000        0.00000000 
O      1.76162863       -1.52056053       -0.69003895 
C      1.75361531       -2.29958791       -1.65874710 
O      2.82438513       -3.05372655       -1.89493692 
C      0.53372011       -2.38557144       -2.58570104 
N     -0.63892424       -2.03738544       -1.72348114 
C      0.42161106       -3.68118660       -3.40051225 
H      2.66382906       -3.63463283       -2.67716151 
H      0.66792591       -1.53996867       -3.28691010 
H     -0.87745195       -2.87558384       -1.17682313 
H     -1.44662078       -1.88418322       -2.33945092 
H      0.42938796       -4.58309950       -2.77463379 
H     -0.52382664       -3.70196001       -3.96095407 
H      1.20494274       -3.76572657       -4.16801073 
14
Iteration: 28
Ca      0.00000000        0.00000000        0.00000000 
O      1.73172293       -1.47696385       -0.70466280 
C      1.73023627       -2.27470541       -1.65846980 
O      2.80833268       -3.02799334       -1.87518484 
C      0.51967588       -2.38089164       -2.59409989 
N     -0.66201044       -2.03447604       -1.74636249 
C      0.42404041       -3.69073816       -3.39600991 
H      2.66410577       -3.62048606       -2.64564098 
H      0.64309384       -1.54387232       -3.30714134 
H     -0.91483072       -2.87243108       -1.19906863 
H     -1.46584230       -1.88001006       -2.37074523 
H      0.45417868       -4.59520875       -2.76602123 
H     -0.52460171       -3.72846878       -3.96261035 
H      1.22143581       -3.76303478       -4.15913212 
14
Iteration: 29
Ca      0.00000000        0.00000000        0.00000000 
O      1.71479858       -1.42769028       -0.72800798 
C      1.71323014       -2.24833535       -1.66266823 
O      2.79381929       -2.99196750       -1.86217763 
C      0.51008696       -2.38175403       -2.60232261 
N     -0.68115549       -2.02956760       -1.77464403 
C      0.42421758       -3.70363002       -3.38835423 
H      2.66548963       -3.60637513       -2.61864226 
H      0.62243735       -1.55688437       -3.33210523 
H     -0.95242102       -2.86310606       -1.22284624 
H     -1.47917142       -1.86474736       -2.40612615 
H      0.46474527       -4.59482942       -2.74401005 
H     -0.51239242       -3.74271324       -3.96067057 
H      1.22749686       -3.77707264       -4.14393611 
14
Iteration: 30
Ca      0.00000000        0.00000000        0.00000000 
O      1.68376729       -1.39609619       -0.74396923 
C      1.69178096       -2.22847019       -1.66554780 
O      2.78049006       -2.96665548       -1.84633991 
C      0.49666964       -2.37602912       -2.60802039 
N     -0.70374062       -2.02749303       -1.79140852 
C      0.42839163       -3.70540944       -3.38414173 
H      2.66616739       -3.59006943       -2.59475155 
H      0.60856659       -1.55725167       -3.34277698 
H     -0.97324461       -2.85458679       -1.23421326 
H     -1.49816023       -1.87470654       -2.42545725 
H      0.46628124       -4.58647673       -2.73147332 
H     -0.50011320       -3.75475056       -3.97118575 
H      1.24028962       -3.78684154       -4.12458854 
14
Iteration: 31
Ca      0.00000000        0.00000000        0.00000000 
O      1.66958171       -1.37160672       -0.75677505 
C      1.68117686       -2.21509798       -1.66966793 
O      2.77645659       -2.93886629       -1.84339599 
C      0.48898255       -2.37516904       -2.60864296 
N     -0.71547962       -2.01850675       -1.80513166 
C      0.42821524       -3.70888499       -3.37295650 
H      2.67023821       -3.56738526       -2.58438328 
H      0.60441617       -1.56312723       -3.35015873 
H     -0.99736337       -2.83838055       -1.24585554 
H     -1.50323400       -1.85896578       -2.44637222 
H      0.46195321       -4.58116188       -2.70965609 
H     -0.49552168       -3.76546695       -3.96781489 
H      1.24618784       -3.79532453       -4.10533017 
14
Iteration: 32
Ca      0.00000000        0.00000000        0.00000000 
O      1.66615663       -1.35484080       -0.76734454 
C      1.67963477       -2.20159863       -1.67455615 
O      2.77982071       -2.91670472       -1.85190801 
C      0.48490748       -2.37269260       -2.60735652 
N     -0.71986956       -2.00404566       -1.81324774 
C      0.42753530       -3.71224607       -3.35687569 
H      2.67810538       -3.55418640       -2.59006015 
H      0.60607194       -1.56606882       -3.35615102 
H     -1.01969666       -2.81951436       -1.25999141 
H     -1.49985311       -1.82399911       -2.45916311 
H      0.45478934       -4.57634739       -2.67987310 
H     -0.49269001       -3.77518133       -3.95514871 
H      1.24859358       -3.80495408       -4.08451824 
14
Iteration: 33
Ca      0.00000000        0.00000000        0.00000000 
O      1.67424531       -1.35701838       -0.76053016 
C      1.68723088       -2.19819576       -1.67427208 
O      2.79439248       -2.89926318       -1.87291335 
C      0.48413498       -2.37186955       -2.60201399 
N     -0.71842162       -1.98857708       -1.81097059 
C      0.42421492       -3.71588517       -3.33880638 
H      2.68781119       -3.52894078       -2.61446488 
H      0.61585266       -1.56794277       -3.35447977 
H     -1.04074298       -2.80687327       -1.27303757 
H     -1.48885958       -1.77802975       -2.45886082 
H      0.43473942       -4.57456193       -2.65301713 
H     -0.49094358       -3.77812418       -3.94050455 
H      1.25032721       -3.81782060       -4.06027917 
14
Iteration: 34
Ca      0.00000000        0.00000000        0.00000000 
O      1.67505914       -1.35956748       -0.75143305 
C      1.68782036       -2.19240855       -1.67193292 
O      2.80453194       -2.87524724       -1.89012608 
C      0.48235779       -2.36619938       -2.59893063 
N     -0.71913185       -1.97158705       -1.81123679 
C      0.42005631       -3.71936744       -3.32151742 
H      2.69836917       -3.50181954       -2.63728656 
H      0.62033820       -1.57025565       -3.35970620 
H     -1.06120563       -2.79238494       -1.28706479 
H     -1.48172919       -1.73668748       -2.46010972 
H      0.41824204       -4.57124414       -2.62567700 
H     -0.48985293       -3.78664118       -3.93611000 
H      1.25630297       -3.83689555       -4.02944817 
14
Iteration: 35
Ca      0.00000000        0.00000000        0.00000000 
O      1.67393663       -1.34913184       -0.74744895 
C      1.68609453       -2.18276389       -1.67043166 
O      2.80757876       -2.85835885       -1.89778364 
C      0.48063006       -2.35892990       -2.59825124 
N     -0.72135041       -1.95860275       -1.81203457 
C      0.41666377       -3.71844378       -3.30895556 
H      2.70060404       -3.48384868       -2.64557603 
H      0.62026150       -1.57050192       -3.36590012 
H     -1.06929252       -2.77893432       -1.29612496 
H     -1.47847272       -1.71667989       -2.46192298 
H      0.40209077       -4.56272512       -2.60322779 
H     -0.48436972       -3.78693742       -3.93345718 
H      1.26048908       -3.85277578       -4.00527004 
14
Iteration: 36
Ca      0.00000000        0.00000000        0.00000000 
O      1.67792010       -1.34888158       -0.74206138 
C      1.68948178       -2.17672720       -1.66947856 
O      2.81603768       -2.83917697       -1.90897687 
C      0.48462586       -2.35151232       -2.59649768 
N     -0.71760532       -1.94211539       -1.81262597 
C      0.41050854       -3.71771787       -3.29411167 
H      2.70777221       -3.46098035       -2.65900638 
H      0.62376887       -1.57163301       -3.37198082 
H     -1.07479710       -2.76207108       -1.30239105 
H     -1.46943598       -1.69435255       -2.46800945 
H      0.38185859       -4.55282518       -2.57807324 
H     -0.48468587       -3.78394392       -3.92537995 
H      1.25750862       -3.87300168       -3.98149784 
14
Iteration: 37
Ca      0.00000000        0.00000000        0.00000000 
O      1.68136980       -1.33878909       -0.74275052 
C      1.69363541       -2.16592518       -1.67088146 
O      2.82180764       -2.82340353       -1.91323150 
C      0.48902985       -2.34333716       -2.59686336 
N     -0.71262364       -1.92584965       -1.81541990 
C      0.40426886       -3.71567952       -3.28181720 
H      2.71246501       -3.44626777       -2.66207429 
H      0.62499404       -1.57059843       -3.37824260 
H     -1.07282745       -2.74396763       -1.30515746 
H     -1.46070212       -1.68093348       -2.47683654 
H      0.36314568       -4.54049095       -2.55569673 
H     -0.48818986       -3.78049929       -3.91685198 
H      1.25211756       -3.89133785       -3.96336418 
14
Iteration: 38
Ca      0.00000000        0.00000000        0.00000000 
O      1.68667734       -1.33493802       -0.74155658 
C      1.70032488       -2.15801541       -1.67293116 
O      2.83005835       -2.81128003       -1.91939057 
C      0.49482042       -2.33541108       -2.59557837 
N     -0.70632045       -1.90919977       -1.81655882 